n -t 0 -s 3 -S DLABEL -l "Host" -L ""
m -t 0 -s 2 -n m1 -c blue -h box
m -t 0 -s 2 -n m1 -c blue -h box -X
V -t * -v 1.0a5 -a 0
A -t * -n 1 -p 0 -o 0x7fffffff -c 30 -a 1
A -t * -h 1 -m 1073741823 -s 0
c -t * -i 1 -n yellow
c -t * -i 2 -n blue
n -t * -a 0 -s 0 -S UP -v circle -c red -i red
n -t * -a 1 -s 1 -S UP -v hexagon -c black -i black
n -t * -a 2 -s 2 -S UP -v circle -c black -i black
n -t * -a 3 -s 3 -S UP -v circle -c black -i black
l -t * -s 0 -d 1 -S UP -r 2000000 -D 0.01 -c black -o right
l -t * -s 1 -d 2 -S UP -r 2000000 -D 0.01 -c black -o down
l -t * -s 2 -d 3 -S UP -r 2000000 -D 0.01 -c black -o left
q -t * -s 3 -d 2 -a 0.5
q -t * -s 2 -d 3 -a 0.5
+ -t 0.1 -s 2 -d 3 -p cbr -e 210 -c 2 -i 0 -a 2 -x {2.0 3.0 0 ------- null}
- -t 0.1 -s 2 -d 3 -p cbr -e 210 -c 2 -i 0 -a 2 -x {2.0 3.0 0 ------- null}
h -t 0.1 -s 2 -d 3 -p cbr -e 210 -c 2 -i 0 -a 2 -x {2.0 3.0 -1 ------- null}
+ -t 0.10375 -s 2 -d 3 -p cbr -e 210 -c 2 -i 1 -a 2 -x {2.0 3.0 1 ------- null}
- -t 0.10375 -s 2 -d 3 -p cbr -e 210 -c 2 -i 1 -a 2 -x {2.0 3.0 1 ------- null}
h -t 0.10375 -s 2 -d 3 -p cbr -e 210 -c 2 -i 1 -a 2 -x {2.0 3.0 -1 ------- null}
+ -t 0.1075 -s 2 -d 3 -p cbr -e 210 -c 2 -i 2 -a 2 -x {2.0 3.0 2 ------- null}
- -t 0.1075 -s 2 -d 3 -p cbr -e 210 -c 2 -i 2 -a 2 -x {2.0 3.0 2 ------- null}
h -t 0.1075 -s 2 -d 3 -p cbr -e 210 -c 2 -i 2 -a 2 -x {2.0 3.0 -1 ------- null}
r -t 0.11084 -s 2 -d 3 -p cbr -e 210 -c 2 -i 0 -a 2 -x {2.0 3.0 0 ------- null}
+ -t 0.11125 -s 2 -d 3 -p cbr -e 210 -c 2 -i 3 -a 2 -x {2.0 3.0 3 ------- null}
- -t 0.11125 -s 2 -d 3 -p cbr -e 210 -c 2 -i 3 -a 2 -x {2.0 3.0 3 ------- null}
h -t 0.11125 -s 2 -d 3 -p cbr -e 210 -c 2 -i 3 -a 2 -x {2.0 3.0 -1 ------- null}
r -t 0.11459 -s 2 -d 3 -p cbr -e 210 -c 2 -i 1 -a 2 -x {2.0 3.0 1 ------- null}
+ -t 0.115 -s 2 -d 3 -p cbr -e 210 -c 2 -i 4 -a 2 -x {2.0 3.0 4 ------- null}
- -t 0.115 -s 2 -d 3 -p cbr -e 210 -c 2 -i 4 -a 2 -x {2.0 3.0 4 ------- null}
h -t 0.115 -s 2 -d 3 -p cbr -e 210 -c 2 -i 4 -a 2 -x {2.0 3.0 -1 ------- null}
r -t 0.11834 -s 2 -d 3 -p cbr -e 210 -c 2 -i 2 -a 2 -x {2.0 3.0 2 ------- null}
+ -t 0.11875 -s 2 -d 3 -p cbr -e 210 -c 2 -i 5 -a 2 -x {2.0 3.0 5 ------- null}
- -t 0.11875 -s 2 -d 3 -p cbr -e 210 -c 2 -i 5 -a 2 -x {2.0 3.0 5 ------- null}
h -t 0.11875 -s 2 -d 3 -p cbr -e 210 -c 2 -i 5 -a 2 -x {2.0 3.0 -1 ------- null}
r -t 0.12209 -s 2 -d 3 -p cbr -e 210 -c 2 -i 3 -a 2 -x {2.0 3.0 3 ------- null}
+ -t 0.1225 -s 2 -d 3 -p cbr -e 210 -c 2 -i 6 -a 2 -x {2.0 3.0 6 ------- null}
- -t 0.1225 -s 2 -d 3 -p cbr -e 210 -c 2 -i 6 -a 2 -x {2.0 3.0 6 ------- null}
h -t 0.1225 -s 2 -d 3 -p cbr -e 210 -c 2 -i 6 -a 2 -x {2.0 3.0 -1 ------- null}
r -t 0.12584 -s 2 -d 3 -p cbr -e 210 -c 2 -i 4 -a 2 -x {2.0 3.0 4 ------- null}
+ -t 0.12625 -s 2 -d 3 -p cbr -e 210 -c 2 -i 7 -a 2 -x {2.0 3.0 7 ------- null}
- -t 0.12625 -s 2 -d 3 -p cbr -e 210 -c 2 -i 7 -a 2 -x {2.0 3.0 7 ------- null}
h -t 0.12625 -s 2 -d 3 -p cbr -e 210 -c 2 -i 7 -a 2 -x {2.0 3.0 -1 ------- null}
r -t 0.12959 -s 2 -d 3 -p cbr -e 210 -c 2 -i 5 -a 2 -x {2.0 3.0 5 ------- null}
+ -t 0.13 -s 2 -d 3 -p cbr -e 210 -c 2 -i 8 -a 2 -x {2.0 3.0 8 ------- null}
- -t 0.13 -s 2 -d 3 -p cbr -e 210 -c 2 -i 8 -a 2 -x {2.0 3.0 8 ------- null}
h -t 0.13 -s 2 -d 3 -p cbr -e 210 -c 2 -i 8 -a 2 -x {2.0 3.0 -1 ------- null}
r -t 0.13334 -s 2 -d 3 -p cbr -e 210 -c 2 -i 6 -a 2 -x {2.0 3.0 6 ------- null}
+ -t 0.13375 -s 2 -d 3 -p cbr -e 210 -c 2 -i 9 -a 2 -x {2.0 3.0 9 ------- null}
- -t 0.13375 -s 2 -d 3 -p cbr -e 210 -c 2 -i 9 -a 2 -x {2.0 3.0 9 ------- null}
h -t 0.13375 -s 2 -d 3 -p cbr -e 210 -c 2 -i 9 -a 2 -x {2.0 3.0 -1 ------- null}
r -t 0.13709 -s 2 -d 3 -p cbr -e 210 -c 2 -i 7 -a 2 -x {2.0 3.0 7 ------- null}
+ -t 0.1375 -s 2 -d 3 -p cbr -e 210 -c 2 -i 10 -a 2 -x {2.0 3.0 10 ------- null}
- -t 0.1375 -s 2 -d 3 -p cbr -e 210 -c 2 -i 10 -a 2 -x {2.0 3.0 10 ------- null}
h -t 0.1375 -s 2 -d 3 -p cbr -e 210 -c 2 -i 10 -a 2 -x {2.0 3.0 -1 ------- null}
r -t 0.14084 -s 2 -d 3 -p cbr -e 210 -c 2 -i 8 -a 2 -x {2.0 3.0 8 ------- null}
+ -t 0.14125 -s 2 -d 3 -p cbr -e 210 -c 2 -i 11 -a 2 -x {2.0 3.0 11 ------- null}
- -t 0.14125 -s 2 -d 3 -p cbr -e 210 -c 2 -i 11 -a 2 -x {2.0 3.0 11 ------- null}
h -t 0.14125 -s 2 -d 3 -p cbr -e 210 -c 2 -i 11 -a 2 -x {2.0 3.0 -1 ------- null}
r -t 0.14459 -s 2 -d 3 -p cbr -e 210 -c 2 -i 9 -a 2 -x {2.0 3.0 9 ------- null}
+ -t 0.145 -s 2 -d 3 -p cbr -e 210 -c 2 -i 12 -a 2 -x {2.0 3.0 12 ------- null}
- -t 0.145 -s 2 -d 3 -p cbr -e 210 -c 2 -i 12 -a 2 -x {2.0 3.0 12 ------- null}
h -t 0.145 -s 2 -d 3 -p cbr -e 210 -c 2 -i 12 -a 2 -x {2.0 3.0 -1 ------- null}
r -t 0.14834 -s 2 -d 3 -p cbr -e 210 -c 2 -i 10 -a 2 -x {2.0 3.0 10 ------- null}
+ -t 0.14875 -s 2 -d 3 -p cbr -e 210 -c 2 -i 13 -a 2 -x {2.0 3.0 13 ------- null}
- -t 0.14875 -s 2 -d 3 -p cbr -e 210 -c 2 -i 13 -a 2 -x {2.0 3.0 13 ------- null}
h -t 0.14875 -s 2 -d 3 -p cbr -e 210 -c 2 -i 13 -a 2 -x {2.0 3.0 -1 ------- null}
r -t 0.15209 -s 2 -d 3 -p cbr -e 210 -c 2 -i 11 -a 2 -x {2.0 3.0 11 ------- null}
+ -t 0.1525 -s 2 -d 3 -p cbr -e 210 -c 2 -i 14 -a 2 -x {2.0 3.0 14 ------- null}
- -t 0.1525 -s 2 -d 3 -p cbr -e 210 -c 2 -i 14 -a 2 -x {2.0 3.0 14 ------- null}
h -t 0.1525 -s 2 -d 3 -p cbr -e 210 -c 2 -i 14 -a 2 -x {2.0 3.0 -1 ------- null}
r -t 0.15584 -s 2 -d 3 -p cbr -e 210 -c 2 -i 12 -a 2 -x {2.0 3.0 12 ------- null}
+ -t 0.15625 -s 2 -d 3 -p cbr -e 210 -c 2 -i 15 -a 2 -x {2.0 3.0 15 ------- null}
- -t 0.15625 -s 2 -d 3 -p cbr -e 210 -c 2 -i 15 -a 2 -x {2.0 3.0 15 ------- null}
h -t 0.15625 -s 2 -d 3 -p cbr -e 210 -c 2 -i 15 -a 2 -x {2.0 3.0 -1 ------- null}
r -t 0.15959 -s 2 -d 3 -p cbr -e 210 -c 2 -i 13 -a 2 -x {2.0 3.0 13 ------- null}
+ -t 0.16 -s 2 -d 3 -p cbr -e 210 -c 2 -i 16 -a 2 -x {2.0 3.0 16 ------- null}
- -t 0.16 -s 2 -d 3 -p cbr -e 210 -c 2 -i 16 -a 2 -x {2.0 3.0 16 ------- null}
h -t 0.16 -s 2 -d 3 -p cbr -e 210 -c 2 -i 16 -a 2 -x {2.0 3.0 -1 ------- null}
r -t 0.16334 -s 2 -d 3 -p cbr -e 210 -c 2 -i 14 -a 2 -x {2.0 3.0 14 ------- null}
+ -t 0.16375 -s 2 -d 3 -p cbr -e 210 -c 2 -i 17 -a 2 -x {2.0 3.0 17 ------- null}
- -t 0.16375 -s 2 -d 3 -p cbr -e 210 -c 2 -i 17 -a 2 -x {2.0 3.0 17 ------- null}
h -t 0.16375 -s 2 -d 3 -p cbr -e 210 -c 2 -i 17 -a 2 -x {2.0 3.0 -1 ------- null}
r -t 0.16709 -s 2 -d 3 -p cbr -e 210 -c 2 -i 15 -a 2 -x {2.0 3.0 15 ------- null}
+ -t 0.1675 -s 2 -d 3 -p cbr -e 210 -c 2 -i 18 -a 2 -x {2.0 3.0 18 ------- null}
- -t 0.1675 -s 2 -d 3 -p cbr -e 210 -c 2 -i 18 -a 2 -x {2.0 3.0 18 ------- null}
h -t 0.1675 -s 2 -d 3 -p cbr -e 210 -c 2 -i 18 -a 2 -x {2.0 3.0 -1 ------- null}
r -t 0.17084 -s 2 -d 3 -p cbr -e 210 -c 2 -i 16 -a 2 -x {2.0 3.0 16 ------- null}
+ -t 0.17125 -s 2 -d 3 -p cbr -e 210 -c 2 -i 19 -a 2 -x {2.0 3.0 19 ------- null}
- -t 0.17125 -s 2 -d 3 -p cbr -e 210 -c 2 -i 19 -a 2 -x {2.0 3.0 19 ------- null}
h -t 0.17125 -s 2 -d 3 -p cbr -e 210 -c 2 -i 19 -a 2 -x {2.0 3.0 -1 ------- null}
r -t 0.17459 -s 2 -d 3 -p cbr -e 210 -c 2 -i 17 -a 2 -x {2.0 3.0 17 ------- null}
+ -t 0.175 -s 2 -d 3 -p cbr -e 210 -c 2 -i 20 -a 2 -x {2.0 3.0 20 ------- null}
- -t 0.175 -s 2 -d 3 -p cbr -e 210 -c 2 -i 20 -a 2 -x {2.0 3.0 20 ------- null}
h -t 0.175 -s 2 -d 3 -p cbr -e 210 -c 2 -i 20 -a 2 -x {2.0 3.0 -1 ------- null}
r -t 0.17834 -s 2 -d 3 -p cbr -e 210 -c 2 -i 18 -a 2 -x {2.0 3.0 18 ------- null}
+ -t 0.17875 -s 2 -d 3 -p cbr -e 210 -c 2 -i 21 -a 2 -x {2.0 3.0 21 ------- null}
- -t 0.17875 -s 2 -d 3 -p cbr -e 210 -c 2 -i 21 -a 2 -x {2.0 3.0 21 ------- null}
h -t 0.17875 -s 2 -d 3 -p cbr -e 210 -c 2 -i 21 -a 2 -x {2.0 3.0 -1 ------- null}
r -t 0.18209 -s 2 -d 3 -p cbr -e 210 -c 2 -i 19 -a 2 -x {2.0 3.0 19 ------- null}
+ -t 0.1825 -s 2 -d 3 -p cbr -e 210 -c 2 -i 22 -a 2 -x {2.0 3.0 22 ------- null}
- -t 0.1825 -s 2 -d 3 -p cbr -e 210 -c 2 -i 22 -a 2 -x {2.0 3.0 22 ------- null}
h -t 0.1825 -s 2 -d 3 -p cbr -e 210 -c 2 -i 22 -a 2 -x {2.0 3.0 -1 ------- null}
r -t 0.18584 -s 2 -d 3 -p cbr -e 210 -c 2 -i 20 -a 2 -x {2.0 3.0 20 ------- null}
+ -t 0.18625 -s 2 -d 3 -p cbr -e 210 -c 2 -i 23 -a 2 -x {2.0 3.0 23 ------- null}
- -t 0.18625 -s 2 -d 3 -p cbr -e 210 -c 2 -i 23 -a 2 -x {2.0 3.0 23 ------- null}
h -t 0.18625 -s 2 -d 3 -p cbr -e 210 -c 2 -i 23 -a 2 -x {2.0 3.0 -1 ------- null}
r -t 0.18959 -s 2 -d 3 -p cbr -e 210 -c 2 -i 21 -a 2 -x {2.0 3.0 21 ------- null}
+ -t 0.19 -s 2 -d 3 -p cbr -e 210 -c 2 -i 24 -a 2 -x {2.0 3.0 24 ------- null}
- -t 0.19 -s 2 -d 3 -p cbr -e 210 -c 2 -i 24 -a 2 -x {2.0 3.0 24 ------- null}
h -t 0.19 -s 2 -d 3 -p cbr -e 210 -c 2 -i 24 -a 2 -x {2.0 3.0 -1 ------- null}
r -t 0.19334 -s 2 -d 3 -p cbr -e 210 -c 2 -i 22 -a 2 -x {2.0 3.0 22 ------- null}
+ -t 0.19375 -s 2 -d 3 -p cbr -e 210 -c 2 -i 25 -a 2 -x {2.0 3.0 25 ------- null}
- -t 0.19375 -s 2 -d 3 -p cbr -e 210 -c 2 -i 25 -a 2 -x {2.0 3.0 25 ------- null}
h -t 0.19375 -s 2 -d 3 -p cbr -e 210 -c 2 -i 25 -a 2 -x {2.0 3.0 -1 ------- null}
r -t 0.19709 -s 2 -d 3 -p cbr -e 210 -c 2 -i 23 -a 2 -x {2.0 3.0 23 ------- null}
+ -t 0.1975 -s 2 -d 3 -p cbr -e 210 -c 2 -i 26 -a 2 -x {2.0 3.0 26 ------- null}
- -t 0.1975 -s 2 -d 3 -p cbr -e 210 -c 2 -i 26 -a 2 -x {2.0 3.0 26 ------- null}
h -t 0.1975 -s 2 -d 3 -p cbr -e 210 -c 2 -i 26 -a 2 -x {2.0 3.0 -1 ------- null}
r -t 0.20084 -s 2 -d 3 -p cbr -e 210 -c 2 -i 24 -a 2 -x {2.0 3.0 24 ------- null}
+ -t 0.20125 -s 2 -d 3 -p cbr -e 210 -c 2 -i 27 -a 2 -x {2.0 3.0 27 ------- null}
- -t 0.20125 -s 2 -d 3 -p cbr -e 210 -c 2 -i 27 -a 2 -x {2.0 3.0 27 ------- null}
h -t 0.20125 -s 2 -d 3 -p cbr -e 210 -c 2 -i 27 -a 2 -x {2.0 3.0 -1 ------- null}
r -t 0.20459 -s 2 -d 3 -p cbr -e 210 -c 2 -i 25 -a 2 -x {2.0 3.0 25 ------- null}
+ -t 0.205 -s 2 -d 3 -p cbr -e 210 -c 2 -i 28 -a 2 -x {2.0 3.0 28 ------- null}
- -t 0.205 -s 2 -d 3 -p cbr -e 210 -c 2 -i 28 -a 2 -x {2.0 3.0 28 ------- null}
h -t 0.205 -s 2 -d 3 -p cbr -e 210 -c 2 -i 28 -a 2 -x {2.0 3.0 -1 ------- null}
r -t 0.20834 -s 2 -d 3 -p cbr -e 210 -c 2 -i 26 -a 2 -x {2.0 3.0 26 ------- null}
+ -t 0.20875 -s 2 -d 3 -p cbr -e 210 -c 2 -i 29 -a 2 -x {2.0 3.0 29 ------- null}
- -t 0.20875 -s 2 -d 3 -p cbr -e 210 -c 2 -i 29 -a 2 -x {2.0 3.0 29 ------- null}
h -t 0.20875 -s 2 -d 3 -p cbr -e 210 -c 2 -i 29 -a 2 -x {2.0 3.0 -1 ------- null}
r -t 0.21209 -s 2 -d 3 -p cbr -e 210 -c 2 -i 27 -a 2 -x {2.0 3.0 27 ------- null}
+ -t 0.2125 -s 2 -d 3 -p cbr -e 210 -c 2 -i 30 -a 2 -x {2.0 3.0 30 ------- null}
- -t 0.2125 -s 2 -d 3 -p cbr -e 210 -c 2 -i 30 -a 2 -x {2.0 3.0 30 ------- null}
h -t 0.2125 -s 2 -d 3 -p cbr -e 210 -c 2 -i 30 -a 2 -x {2.0 3.0 -1 ------- null}
r -t 0.21584 -s 2 -d 3 -p cbr -e 210 -c 2 -i 28 -a 2 -x {2.0 3.0 28 ------- null}
+ -t 0.21625 -s 2 -d 3 -p cbr -e 210 -c 2 -i 31 -a 2 -x {2.0 3.0 31 ------- null}
- -t 0.21625 -s 2 -d 3 -p cbr -e 210 -c 2 -i 31 -a 2 -x {2.0 3.0 31 ------- null}
h -t 0.21625 -s 2 -d 3 -p cbr -e 210 -c 2 -i 31 -a 2 -x {2.0 3.0 -1 ------- null}
r -t 0.21959 -s 2 -d 3 -p cbr -e 210 -c 2 -i 29 -a 2 -x {2.0 3.0 29 ------- null}
+ -t 0.22 -s 2 -d 3 -p cbr -e 210 -c 2 -i 32 -a 2 -x {2.0 3.0 32 ------- null}
- -t 0.22 -s 2 -d 3 -p cbr -e 210 -c 2 -i 32 -a 2 -x {2.0 3.0 32 ------- null}
h -t 0.22 -s 2 -d 3 -p cbr -e 210 -c 2 -i 32 -a 2 -x {2.0 3.0 -1 ------- null}
r -t 0.22334 -s 2 -d 3 -p cbr -e 210 -c 2 -i 30 -a 2 -x {2.0 3.0 30 ------- null}
+ -t 0.22375 -s 2 -d 3 -p cbr -e 210 -c 2 -i 33 -a 2 -x {2.0 3.0 33 ------- null}
- -t 0.22375 -s 2 -d 3 -p cbr -e 210 -c 2 -i 33 -a 2 -x {2.0 3.0 33 ------- null}
h -t 0.22375 -s 2 -d 3 -p cbr -e 210 -c 2 -i 33 -a 2 -x {2.0 3.0 -1 ------- null}
r -t 0.22709 -s 2 -d 3 -p cbr -e 210 -c 2 -i 31 -a 2 -x {2.0 3.0 31 ------- null}
+ -t 0.2275 -s 2 -d 3 -p cbr -e 210 -c 2 -i 34 -a 2 -x {2.0 3.0 34 ------- null}
- -t 0.2275 -s 2 -d 3 -p cbr -e 210 -c 2 -i 34 -a 2 -x {2.0 3.0 34 ------- null}
h -t 0.2275 -s 2 -d 3 -p cbr -e 210 -c 2 -i 34 -a 2 -x {2.0 3.0 -1 ------- null}
r -t 0.23084 -s 2 -d 3 -p cbr -e 210 -c 2 -i 32 -a 2 -x {2.0 3.0 32 ------- null}
+ -t 0.23125 -s 2 -d 3 -p cbr -e 210 -c 2 -i 35 -a 2 -x {2.0 3.0 35 ------- null}
- -t 0.23125 -s 2 -d 3 -p cbr -e 210 -c 2 -i 35 -a 2 -x {2.0 3.0 35 ------- null}
h -t 0.23125 -s 2 -d 3 -p cbr -e 210 -c 2 -i 35 -a 2 -x {2.0 3.0 -1 ------- null}
r -t 0.23459 -s 2 -d 3 -p cbr -e 210 -c 2 -i 33 -a 2 -x {2.0 3.0 33 ------- null}
+ -t 0.235 -s 2 -d 3 -p cbr -e 210 -c 2 -i 36 -a 2 -x {2.0 3.0 36 ------- null}
- -t 0.235 -s 2 -d 3 -p cbr -e 210 -c 2 -i 36 -a 2 -x {2.0 3.0 36 ------- null}
h -t 0.235 -s 2 -d 3 -p cbr -e 210 -c 2 -i 36 -a 2 -x {2.0 3.0 -1 ------- null}
r -t 0.23834 -s 2 -d 3 -p cbr -e 210 -c 2 -i 34 -a 2 -x {2.0 3.0 34 ------- null}
+ -t 0.23875 -s 2 -d 3 -p cbr -e 210 -c 2 -i 37 -a 2 -x {2.0 3.0 37 ------- null}
- -t 0.23875 -s 2 -d 3 -p cbr -e 210 -c 2 -i 37 -a 2 -x {2.0 3.0 37 ------- null}
h -t 0.23875 -s 2 -d 3 -p cbr -e 210 -c 2 -i 37 -a 2 -x {2.0 3.0 -1 ------- null}
r -t 0.24209 -s 2 -d 3 -p cbr -e 210 -c 2 -i 35 -a 2 -x {2.0 3.0 35 ------- null}
+ -t 0.2425 -s 2 -d 3 -p cbr -e 210 -c 2 -i 38 -a 2 -x {2.0 3.0 38 ------- null}
- -t 0.2425 -s 2 -d 3 -p cbr -e 210 -c 2 -i 38 -a 2 -x {2.0 3.0 38 ------- null}
h -t 0.2425 -s 2 -d 3 -p cbr -e 210 -c 2 -i 38 -a 2 -x {2.0 3.0 -1 ------- null}
r -t 0.24584 -s 2 -d 3 -p cbr -e 210 -c 2 -i 36 -a 2 -x {2.0 3.0 36 ------- null}
+ -t 0.24625 -s 2 -d 3 -p cbr -e 210 -c 2 -i 39 -a 2 -x {2.0 3.0 39 ------- null}
- -t 0.24625 -s 2 -d 3 -p cbr -e 210 -c 2 -i 39 -a 2 -x {2.0 3.0 39 ------- null}
h -t 0.24625 -s 2 -d 3 -p cbr -e 210 -c 2 -i 39 -a 2 -x {2.0 3.0 -1 ------- null}
r -t 0.24959 -s 2 -d 3 -p cbr -e 210 -c 2 -i 37 -a 2 -x {2.0 3.0 37 ------- null}
+ -t 0.25 -s 2 -d 3 -p cbr -e 210 -c 2 -i 40 -a 2 -x {2.0 3.0 40 ------- null}
- -t 0.25 -s 2 -d 3 -p cbr -e 210 -c 2 -i 40 -a 2 -x {2.0 3.0 40 ------- null}
h -t 0.25 -s 2 -d 3 -p cbr -e 210 -c 2 -i 40 -a 2 -x {2.0 3.0 -1 ------- null}
r -t 0.25334 -s 2 -d 3 -p cbr -e 210 -c 2 -i 38 -a 2 -x {2.0 3.0 38 ------- null}
+ -t 0.25375 -s 2 -d 3 -p cbr -e 210 -c 2 -i 41 -a 2 -x {2.0 3.0 41 ------- null}
- -t 0.25375 -s 2 -d 3 -p cbr -e 210 -c 2 -i 41 -a 2 -x {2.0 3.0 41 ------- null}
h -t 0.25375 -s 2 -d 3 -p cbr -e 210 -c 2 -i 41 -a 2 -x {2.0 3.0 -1 ------- null}
r -t 0.25709 -s 2 -d 3 -p cbr -e 210 -c 2 -i 39 -a 2 -x {2.0 3.0 39 ------- null}
+ -t 0.2575 -s 2 -d 3 -p cbr -e 210 -c 2 -i 42 -a 2 -x {2.0 3.0 42 ------- null}
- -t 0.2575 -s 2 -d 3 -p cbr -e 210 -c 2 -i 42 -a 2 -x {2.0 3.0 42 ------- null}
h -t 0.2575 -s 2 -d 3 -p cbr -e 210 -c 2 -i 42 -a 2 -x {2.0 3.0 -1 ------- null}
r -t 0.26084 -s 2 -d 3 -p cbr -e 210 -c 2 -i 40 -a 2 -x {2.0 3.0 40 ------- null}
+ -t 0.26125 -s 2 -d 3 -p cbr -e 210 -c 2 -i 43 -a 2 -x {2.0 3.0 43 ------- null}
- -t 0.26125 -s 2 -d 3 -p cbr -e 210 -c 2 -i 43 -a 2 -x {2.0 3.0 43 ------- null}
h -t 0.26125 -s 2 -d 3 -p cbr -e 210 -c 2 -i 43 -a 2 -x {2.0 3.0 -1 ------- null}
r -t 0.26459 -s 2 -d 3 -p cbr -e 210 -c 2 -i 41 -a 2 -x {2.0 3.0 41 ------- null}
+ -t 0.265 -s 2 -d 3 -p cbr -e 210 -c 2 -i 44 -a 2 -x {2.0 3.0 44 ------- null}
- -t 0.265 -s 2 -d 3 -p cbr -e 210 -c 2 -i 44 -a 2 -x {2.0 3.0 44 ------- null}
h -t 0.265 -s 2 -d 3 -p cbr -e 210 -c 2 -i 44 -a 2 -x {2.0 3.0 -1 ------- null}
r -t 0.26834 -s 2 -d 3 -p cbr -e 210 -c 2 -i 42 -a 2 -x {2.0 3.0 42 ------- null}
+ -t 0.26875 -s 2 -d 3 -p cbr -e 210 -c 2 -i 45 -a 2 -x {2.0 3.0 45 ------- null}
- -t 0.26875 -s 2 -d 3 -p cbr -e 210 -c 2 -i 45 -a 2 -x {2.0 3.0 45 ------- null}
h -t 0.26875 -s 2 -d 3 -p cbr -e 210 -c 2 -i 45 -a 2 -x {2.0 3.0 -1 ------- null}
r -t 0.27209 -s 2 -d 3 -p cbr -e 210 -c 2 -i 43 -a 2 -x {2.0 3.0 43 ------- null}
+ -t 0.2725 -s 2 -d 3 -p cbr -e 210 -c 2 -i 46 -a 2 -x {2.0 3.0 46 ------- null}
- -t 0.2725 -s 2 -d 3 -p cbr -e 210 -c 2 -i 46 -a 2 -x {2.0 3.0 46 ------- null}
h -t 0.2725 -s 2 -d 3 -p cbr -e 210 -c 2 -i 46 -a 2 -x {2.0 3.0 -1 ------- null}
r -t 0.27584 -s 2 -d 3 -p cbr -e 210 -c 2 -i 44 -a 2 -x {2.0 3.0 44 ------- null}
+ -t 0.27625 -s 2 -d 3 -p cbr -e 210 -c 2 -i 47 -a 2 -x {2.0 3.0 47 ------- null}
- -t 0.27625 -s 2 -d 3 -p cbr -e 210 -c 2 -i 47 -a 2 -x {2.0 3.0 47 ------- null}
h -t 0.27625 -s 2 -d 3 -p cbr -e 210 -c 2 -i 47 -a 2 -x {2.0 3.0 -1 ------- null}
r -t 0.27959 -s 2 -d 3 -p cbr -e 210 -c 2 -i 45 -a 2 -x {2.0 3.0 45 ------- null}
+ -t 0.28 -s 2 -d 3 -p cbr -e 210 -c 2 -i 48 -a 2 -x {2.0 3.0 48 ------- null}
- -t 0.28 -s 2 -d 3 -p cbr -e 210 -c 2 -i 48 -a 2 -x {2.0 3.0 48 ------- null}
h -t 0.28 -s 2 -d 3 -p cbr -e 210 -c 2 -i 48 -a 2 -x {2.0 3.0 -1 ------- null}
r -t 0.28334 -s 2 -d 3 -p cbr -e 210 -c 2 -i 46 -a 2 -x {2.0 3.0 46 ------- null}
+ -t 0.28375 -s 2 -d 3 -p cbr -e 210 -c 2 -i 49 -a 2 -x {2.0 3.0 49 ------- null}
- -t 0.28375 -s 2 -d 3 -p cbr -e 210 -c 2 -i 49 -a 2 -x {2.0 3.0 49 ------- null}
h -t 0.28375 -s 2 -d 3 -p cbr -e 210 -c 2 -i 49 -a 2 -x {2.0 3.0 -1 ------- null}
r -t 0.28709 -s 2 -d 3 -p cbr -e 210 -c 2 -i 47 -a 2 -x {2.0 3.0 47 ------- null}
+ -t 0.2875 -s 2 -d 3 -p cbr -e 210 -c 2 -i 50 -a 2 -x {2.0 3.0 50 ------- null}
- -t 0.2875 -s 2 -d 3 -p cbr -e 210 -c 2 -i 50 -a 2 -x {2.0 3.0 50 ------- null}
h -t 0.2875 -s 2 -d 3 -p cbr -e 210 -c 2 -i 50 -a 2 -x {2.0 3.0 -1 ------- null}
r -t 0.29084 -s 2 -d 3 -p cbr -e 210 -c 2 -i 48 -a 2 -x {2.0 3.0 48 ------- null}
+ -t 0.29125 -s 2 -d 3 -p cbr -e 210 -c 2 -i 51 -a 2 -x {2.0 3.0 51 ------- null}
- -t 0.29125 -s 2 -d 3 -p cbr -e 210 -c 2 -i 51 -a 2 -x {2.0 3.0 51 ------- null}
h -t 0.29125 -s 2 -d 3 -p cbr -e 210 -c 2 -i 51 -a 2 -x {2.0 3.0 -1 ------- null}
r -t 0.29459 -s 2 -d 3 -p cbr -e 210 -c 2 -i 49 -a 2 -x {2.0 3.0 49 ------- null}
+ -t 0.295 -s 2 -d 3 -p cbr -e 210 -c 2 -i 52 -a 2 -x {2.0 3.0 52 ------- null}
- -t 0.295 -s 2 -d 3 -p cbr -e 210 -c 2 -i 52 -a 2 -x {2.0 3.0 52 ------- null}
h -t 0.295 -s 2 -d 3 -p cbr -e 210 -c 2 -i 52 -a 2 -x {2.0 3.0 -1 ------- null}
r -t 0.29834 -s 2 -d 3 -p cbr -e 210 -c 2 -i 50 -a 2 -x {2.0 3.0 50 ------- null}
+ -t 0.29875 -s 2 -d 3 -p cbr -e 210 -c 2 -i 53 -a 2 -x {2.0 3.0 53 ------- null}
- -t 0.29875 -s 2 -d 3 -p cbr -e 210 -c 2 -i 53 -a 2 -x {2.0 3.0 53 ------- null}
h -t 0.29875 -s 2 -d 3 -p cbr -e 210 -c 2 -i 53 -a 2 -x {2.0 3.0 -1 ------- null}
r -t 0.30209 -s 2 -d 3 -p cbr -e 210 -c 2 -i 51 -a 2 -x {2.0 3.0 51 ------- null}
+ -t 0.3025 -s 2 -d 3 -p cbr -e 210 -c 2 -i 54 -a 2 -x {2.0 3.0 54 ------- null}
- -t 0.3025 -s 2 -d 3 -p cbr -e 210 -c 2 -i 54 -a 2 -x {2.0 3.0 54 ------- null}
h -t 0.3025 -s 2 -d 3 -p cbr -e 210 -c 2 -i 54 -a 2 -x {2.0 3.0 -1 ------- null}
r -t 0.30584 -s 2 -d 3 -p cbr -e 210 -c 2 -i 52 -a 2 -x {2.0 3.0 52 ------- null}
+ -t 0.30625 -s 2 -d 3 -p cbr -e 210 -c 2 -i 55 -a 2 -x {2.0 3.0 55 ------- null}
- -t 0.30625 -s 2 -d 3 -p cbr -e 210 -c 2 -i 55 -a 2 -x {2.0 3.0 55 ------- null}
h -t 0.30625 -s 2 -d 3 -p cbr -e 210 -c 2 -i 55 -a 2 -x {2.0 3.0 -1 ------- null}
r -t 0.30959 -s 2 -d 3 -p cbr -e 210 -c 2 -i 53 -a 2 -x {2.0 3.0 53 ------- null}
+ -t 0.31 -s 2 -d 3 -p cbr -e 210 -c 2 -i 56 -a 2 -x {2.0 3.0 56 ------- null}
- -t 0.31 -s 2 -d 3 -p cbr -e 210 -c 2 -i 56 -a 2 -x {2.0 3.0 56 ------- null}
h -t 0.31 -s 2 -d 3 -p cbr -e 210 -c 2 -i 56 -a 2 -x {2.0 3.0 -1 ------- null}
r -t 0.31334 -s 2 -d 3 -p cbr -e 210 -c 2 -i 54 -a 2 -x {2.0 3.0 54 ------- null}
+ -t 0.31375 -s 2 -d 3 -p cbr -e 210 -c 2 -i 57 -a 2 -x {2.0 3.0 57 ------- null}
- -t 0.31375 -s 2 -d 3 -p cbr -e 210 -c 2 -i 57 -a 2 -x {2.0 3.0 57 ------- null}
h -t 0.31375 -s 2 -d 3 -p cbr -e 210 -c 2 -i 57 -a 2 -x {2.0 3.0 -1 ------- null}
r -t 0.31709 -s 2 -d 3 -p cbr -e 210 -c 2 -i 55 -a 2 -x {2.0 3.0 55 ------- null}
+ -t 0.3175 -s 2 -d 3 -p cbr -e 210 -c 2 -i 58 -a 2 -x {2.0 3.0 58 ------- null}
- -t 0.3175 -s 2 -d 3 -p cbr -e 210 -c 2 -i 58 -a 2 -x {2.0 3.0 58 ------- null}
h -t 0.3175 -s 2 -d 3 -p cbr -e 210 -c 2 -i 58 -a 2 -x {2.0 3.0 -1 ------- null}
r -t 0.32084 -s 2 -d 3 -p cbr -e 210 -c 2 -i 56 -a 2 -x {2.0 3.0 56 ------- null}
+ -t 0.32125 -s 2 -d 3 -p cbr -e 210 -c 2 -i 59 -a 2 -x {2.0 3.0 59 ------- null}
- -t 0.32125 -s 2 -d 3 -p cbr -e 210 -c 2 -i 59 -a 2 -x {2.0 3.0 59 ------- null}
h -t 0.32125 -s 2 -d 3 -p cbr -e 210 -c 2 -i 59 -a 2 -x {2.0 3.0 -1 ------- null}
r -t 0.32459 -s 2 -d 3 -p cbr -e 210 -c 2 -i 57 -a 2 -x {2.0 3.0 57 ------- null}
+ -t 0.325 -s 2 -d 3 -p cbr -e 210 -c 2 -i 60 -a 2 -x {2.0 3.0 60 ------- null}
- -t 0.325 -s 2 -d 3 -p cbr -e 210 -c 2 -i 60 -a 2 -x {2.0 3.0 60 ------- null}
h -t 0.325 -s 2 -d 3 -p cbr -e 210 -c 2 -i 60 -a 2 -x {2.0 3.0 -1 ------- null}
r -t 0.32834 -s 2 -d 3 -p cbr -e 210 -c 2 -i 58 -a 2 -x {2.0 3.0 58 ------- null}
+ -t 0.32875 -s 2 -d 3 -p cbr -e 210 -c 2 -i 61 -a 2 -x {2.0 3.0 61 ------- null}
- -t 0.32875 -s 2 -d 3 -p cbr -e 210 -c 2 -i 61 -a 2 -x {2.0 3.0 61 ------- null}
h -t 0.32875 -s 2 -d 3 -p cbr -e 210 -c 2 -i 61 -a 2 -x {2.0 3.0 -1 ------- null}
r -t 0.33209 -s 2 -d 3 -p cbr -e 210 -c 2 -i 59 -a 2 -x {2.0 3.0 59 ------- null}
+ -t 0.3325 -s 2 -d 3 -p cbr -e 210 -c 2 -i 62 -a 2 -x {2.0 3.0 62 ------- null}
- -t 0.3325 -s 2 -d 3 -p cbr -e 210 -c 2 -i 62 -a 2 -x {2.0 3.0 62 ------- null}
h -t 0.3325 -s 2 -d 3 -p cbr -e 210 -c 2 -i 62 -a 2 -x {2.0 3.0 -1 ------- null}
r -t 0.33584 -s 2 -d 3 -p cbr -e 210 -c 2 -i 60 -a 2 -x {2.0 3.0 60 ------- null}
+ -t 0.33625 -s 2 -d 3 -p cbr -e 210 -c 2 -i 63 -a 2 -x {2.0 3.0 63 ------- null}
- -t 0.33625 -s 2 -d 3 -p cbr -e 210 -c 2 -i 63 -a 2 -x {2.0 3.0 63 ------- null}
h -t 0.33625 -s 2 -d 3 -p cbr -e 210 -c 2 -i 63 -a 2 -x {2.0 3.0 -1 ------- null}
r -t 0.33959 -s 2 -d 3 -p cbr -e 210 -c 2 -i 61 -a 2 -x {2.0 3.0 61 ------- null}
+ -t 0.34 -s 2 -d 3 -p cbr -e 210 -c 2 -i 64 -a 2 -x {2.0 3.0 64 ------- null}
- -t 0.34 -s 2 -d 3 -p cbr -e 210 -c 2 -i 64 -a 2 -x {2.0 3.0 64 ------- null}
h -t 0.34 -s 2 -d 3 -p cbr -e 210 -c 2 -i 64 -a 2 -x {2.0 3.0 -1 ------- null}
r -t 0.34334 -s 2 -d 3 -p cbr -e 210 -c 2 -i 62 -a 2 -x {2.0 3.0 62 ------- null}
+ -t 0.34375 -s 2 -d 3 -p cbr -e 210 -c 2 -i 65 -a 2 -x {2.0 3.0 65 ------- null}
- -t 0.34375 -s 2 -d 3 -p cbr -e 210 -c 2 -i 65 -a 2 -x {2.0 3.0 65 ------- null}
h -t 0.34375 -s 2 -d 3 -p cbr -e 210 -c 2 -i 65 -a 2 -x {2.0 3.0 -1 ------- null}
r -t 0.34709 -s 2 -d 3 -p cbr -e 210 -c 2 -i 63 -a 2 -x {2.0 3.0 63 ------- null}
+ -t 0.347499999999999 -s 2 -d 3 -p cbr -e 210 -c 2 -i 66 -a 2 -x {2.0 3.0 66 ------- null}
- -t 0.347499999999999 -s 2 -d 3 -p cbr -e 210 -c 2 -i 66 -a 2 -x {2.0 3.0 66 ------- null}
h -t 0.347499999999999 -s 2 -d 3 -p cbr -e 210 -c 2 -i 66 -a 2 -x {2.0 3.0 -1 ------- null}
r -t 0.35084 -s 2 -d 3 -p cbr -e 210 -c 2 -i 64 -a 2 -x {2.0 3.0 64 ------- null}
+ -t 0.351249999999999 -s 2 -d 3 -p cbr -e 210 -c 2 -i 67 -a 2 -x {2.0 3.0 67 ------- null}
- -t 0.351249999999999 -s 2 -d 3 -p cbr -e 210 -c 2 -i 67 -a 2 -x {2.0 3.0 67 ------- null}
h -t 0.351249999999999 -s 2 -d 3 -p cbr -e 210 -c 2 -i 67 -a 2 -x {2.0 3.0 -1 ------- null}
r -t 0.35459 -s 2 -d 3 -p cbr -e 210 -c 2 -i 65 -a 2 -x {2.0 3.0 65 ------- null}
+ -t 0.354999999999999 -s 2 -d 3 -p cbr -e 210 -c 2 -i 68 -a 2 -x {2.0 3.0 68 ------- null}
- -t 0.354999999999999 -s 2 -d 3 -p cbr -e 210 -c 2 -i 68 -a 2 -x {2.0 3.0 68 ------- null}
h -t 0.354999999999999 -s 2 -d 3 -p cbr -e 210 -c 2 -i 68 -a 2 -x {2.0 3.0 -1 ------- null}
r -t 0.358339999999999 -s 2 -d 3 -p cbr -e 210 -c 2 -i 66 -a 2 -x {2.0 3.0 66 ------- null}
+ -t 0.358749999999999 -s 2 -d 3 -p cbr -e 210 -c 2 -i 69 -a 2 -x {2.0 3.0 69 ------- null}
- -t 0.358749999999999 -s 2 -d 3 -p cbr -e 210 -c 2 -i 69 -a 2 -x {2.0 3.0 69 ------- null}
h -t 0.358749999999999 -s 2 -d 3 -p cbr -e 210 -c 2 -i 69 -a 2 -x {2.0 3.0 -1 ------- null}
r -t 0.362089999999999 -s 2 -d 3 -p cbr -e 210 -c 2 -i 67 -a 2 -x {2.0 3.0 67 ------- null}
+ -t 0.362499999999999 -s 2 -d 3 -p cbr -e 210 -c 2 -i 70 -a 2 -x {2.0 3.0 70 ------- null}
- -t 0.362499999999999 -s 2 -d 3 -p cbr -e 210 -c 2 -i 70 -a 2 -x {2.0 3.0 70 ------- null}
h -t 0.362499999999999 -s 2 -d 3 -p cbr -e 210 -c 2 -i 70 -a 2 -x {2.0 3.0 -1 ------- null}
r -t 0.365839999999999 -s 2 -d 3 -p cbr -e 210 -c 2 -i 68 -a 2 -x {2.0 3.0 68 ------- null}
+ -t 0.366249999999999 -s 2 -d 3 -p cbr -e 210 -c 2 -i 71 -a 2 -x {2.0 3.0 71 ------- null}
- -t 0.366249999999999 -s 2 -d 3 -p cbr -e 210 -c 2 -i 71 -a 2 -x {2.0 3.0 71 ------- null}
h -t 0.366249999999999 -s 2 -d 3 -p cbr -e 210 -c 2 -i 71 -a 2 -x {2.0 3.0 -1 ------- null}
r -t 0.369589999999999 -s 2 -d 3 -p cbr -e 210 -c 2 -i 69 -a 2 -x {2.0 3.0 69 ------- null}
+ -t 0.369999999999999 -s 2 -d 3 -p cbr -e 210 -c 2 -i 72 -a 2 -x {2.0 3.0 72 ------- null}
- -t 0.369999999999999 -s 2 -d 3 -p cbr -e 210 -c 2 -i 72 -a 2 -x {2.0 3.0 72 ------- null}
h -t 0.369999999999999 -s 2 -d 3 -p cbr -e 210 -c 2 -i 72 -a 2 -x {2.0 3.0 -1 ------- null}
r -t 0.373339999999999 -s 2 -d 3 -p cbr -e 210 -c 2 -i 70 -a 2 -x {2.0 3.0 70 ------- null}
+ -t 0.373749999999999 -s 2 -d 3 -p cbr -e 210 -c 2 -i 73 -a 2 -x {2.0 3.0 73 ------- null}
- -t 0.373749999999999 -s 2 -d 3 -p cbr -e 210 -c 2 -i 73 -a 2 -x {2.0 3.0 73 ------- null}
h -t 0.373749999999999 -s 2 -d 3 -p cbr -e 210 -c 2 -i 73 -a 2 -x {2.0 3.0 -1 ------- null}
r -t 0.377089999999999 -s 2 -d 3 -p cbr -e 210 -c 2 -i 71 -a 2 -x {2.0 3.0 71 ------- null}
+ -t 0.377499999999999 -s 2 -d 3 -p cbr -e 210 -c 2 -i 74 -a 2 -x {2.0 3.0 74 ------- null}
- -t 0.377499999999999 -s 2 -d 3 -p cbr -e 210 -c 2 -i 74 -a 2 -x {2.0 3.0 74 ------- null}
h -t 0.377499999999999 -s 2 -d 3 -p cbr -e 210 -c 2 -i 74 -a 2 -x {2.0 3.0 -1 ------- null}
r -t 0.380839999999999 -s 2 -d 3 -p cbr -e 210 -c 2 -i 72 -a 2 -x {2.0 3.0 72 ------- null}
+ -t 0.381249999999999 -s 2 -d 3 -p cbr -e 210 -c 2 -i 75 -a 2 -x {2.0 3.0 75 ------- null}
- -t 0.381249999999999 -s 2 -d 3 -p cbr -e 210 -c 2 -i 75 -a 2 -x {2.0 3.0 75 ------- null}
h -t 0.381249999999999 -s 2 -d 3 -p cbr -e 210 -c 2 -i 75 -a 2 -x {2.0 3.0 -1 ------- null}
r -t 0.384589999999999 -s 2 -d 3 -p cbr -e 210 -c 2 -i 73 -a 2 -x {2.0 3.0 73 ------- null}
+ -t 0.384999999999999 -s 2 -d 3 -p cbr -e 210 -c 2 -i 76 -a 2 -x {2.0 3.0 76 ------- null}
- -t 0.384999999999999 -s 2 -d 3 -p cbr -e 210 -c 2 -i 76 -a 2 -x {2.0 3.0 76 ------- null}
h -t 0.384999999999999 -s 2 -d 3 -p cbr -e 210 -c 2 -i 76 -a 2 -x {2.0 3.0 -1 ------- null}
r -t 0.388339999999999 -s 2 -d 3 -p cbr -e 210 -c 2 -i 74 -a 2 -x {2.0 3.0 74 ------- null}
+ -t 0.388749999999999 -s 2 -d 3 -p cbr -e 210 -c 2 -i 77 -a 2 -x {2.0 3.0 77 ------- null}
- -t 0.388749999999999 -s 2 -d 3 -p cbr -e 210 -c 2 -i 77 -a 2 -x {2.0 3.0 77 ------- null}
h -t 0.388749999999999 -s 2 -d 3 -p cbr -e 210 -c 2 -i 77 -a 2 -x {2.0 3.0 -1 ------- null}
r -t 0.392089999999999 -s 2 -d 3 -p cbr -e 210 -c 2 -i 75 -a 2 -x {2.0 3.0 75 ------- null}
+ -t 0.392499999999999 -s 2 -d 3 -p cbr -e 210 -c 2 -i 78 -a 2 -x {2.0 3.0 78 ------- null}
- -t 0.392499999999999 -s 2 -d 3 -p cbr -e 210 -c 2 -i 78 -a 2 -x {2.0 3.0 78 ------- null}
h -t 0.392499999999999 -s 2 -d 3 -p cbr -e 210 -c 2 -i 78 -a 2 -x {2.0 3.0 -1 ------- null}
r -t 0.395839999999999 -s 2 -d 3 -p cbr -e 210 -c 2 -i 76 -a 2 -x {2.0 3.0 76 ------- null}
+ -t 0.396249999999999 -s 2 -d 3 -p cbr -e 210 -c 2 -i 79 -a 2 -x {2.0 3.0 79 ------- null}
- -t 0.396249999999999 -s 2 -d 3 -p cbr -e 210 -c 2 -i 79 -a 2 -x {2.0 3.0 79 ------- null}
h -t 0.396249999999999 -s 2 -d 3 -p cbr -e 210 -c 2 -i 79 -a 2 -x {2.0 3.0 -1 ------- null}
r -t 0.399589999999999 -s 2 -d 3 -p cbr -e 210 -c 2 -i 77 -a 2 -x {2.0 3.0 77 ------- null}
+ -t 0.399999999999999 -s 2 -d 3 -p cbr -e 210 -c 2 -i 80 -a 2 -x {2.0 3.0 80 ------- null}
- -t 0.399999999999999 -s 2 -d 3 -p cbr -e 210 -c 2 -i 80 -a 2 -x {2.0 3.0 80 ------- null}
h -t 0.399999999999999 -s 2 -d 3 -p cbr -e 210 -c 2 -i 80 -a 2 -x {2.0 3.0 -1 ------- null}
r -t 0.403339999999999 -s 2 -d 3 -p cbr -e 210 -c 2 -i 78 -a 2 -x {2.0 3.0 78 ------- null}
+ -t 0.403749999999999 -s 2 -d 3 -p cbr -e 210 -c 2 -i 81 -a 2 -x {2.0 3.0 81 ------- null}
- -t 0.403749999999999 -s 2 -d 3 -p cbr -e 210 -c 2 -i 81 -a 2 -x {2.0 3.0 81 ------- null}
h -t 0.403749999999999 -s 2 -d 3 -p cbr -e 210 -c 2 -i 81 -a 2 -x {2.0 3.0 -1 ------- null}
r -t 0.407089999999999 -s 2 -d 3 -p cbr -e 210 -c 2 -i 79 -a 2 -x {2.0 3.0 79 ------- null}
+ -t 0.407499999999999 -s 2 -d 3 -p cbr -e 210 -c 2 -i 82 -a 2 -x {2.0 3.0 82 ------- null}
- -t 0.407499999999999 -s 2 -d 3 -p cbr -e 210 -c 2 -i 82 -a 2 -x {2.0 3.0 82 ------- null}
h -t 0.407499999999999 -s 2 -d 3 -p cbr -e 210 -c 2 -i 82 -a 2 -x {2.0 3.0 -1 ------- null}
r -t 0.410839999999999 -s 2 -d 3 -p cbr -e 210 -c 2 -i 80 -a 2 -x {2.0 3.0 80 ------- null}
+ -t 0.411249999999999 -s 2 -d 3 -p cbr -e 210 -c 2 -i 83 -a 2 -x {2.0 3.0 83 ------- null}
- -t 0.411249999999999 -s 2 -d 3 -p cbr -e 210 -c 2 -i 83 -a 2 -x {2.0 3.0 83 ------- null}
h -t 0.411249999999999 -s 2 -d 3 -p cbr -e 210 -c 2 -i 83 -a 2 -x {2.0 3.0 -1 ------- null}
r -t 0.414589999999999 -s 2 -d 3 -p cbr -e 210 -c 2 -i 81 -a 2 -x {2.0 3.0 81 ------- null}
+ -t 0.414999999999999 -s 2 -d 3 -p cbr -e 210 -c 2 -i 84 -a 2 -x {2.0 3.0 84 ------- null}
- -t 0.414999999999999 -s 2 -d 3 -p cbr -e 210 -c 2 -i 84 -a 2 -x {2.0 3.0 84 ------- null}
h -t 0.414999999999999 -s 2 -d 3 -p cbr -e 210 -c 2 -i 84 -a 2 -x {2.0 3.0 -1 ------- null}
r -t 0.418339999999999 -s 2 -d 3 -p cbr -e 210 -c 2 -i 82 -a 2 -x {2.0 3.0 82 ------- null}
+ -t 0.418749999999999 -s 2 -d 3 -p cbr -e 210 -c 2 -i 85 -a 2 -x {2.0 3.0 85 ------- null}
- -t 0.418749999999999 -s 2 -d 3 -p cbr -e 210 -c 2 -i 85 -a 2 -x {2.0 3.0 85 ------- null}
h -t 0.418749999999999 -s 2 -d 3 -p cbr -e 210 -c 2 -i 85 -a 2 -x {2.0 3.0 -1 ------- null}
r -t 0.422089999999999 -s 2 -d 3 -p cbr -e 210 -c 2 -i 83 -a 2 -x {2.0 3.0 83 ------- null}
+ -t 0.422499999999999 -s 2 -d 3 -p cbr -e 210 -c 2 -i 86 -a 2 -x {2.0 3.0 86 ------- null}
- -t 0.422499999999999 -s 2 -d 3 -p cbr -e 210 -c 2 -i 86 -a 2 -x {2.0 3.0 86 ------- null}
h -t 0.422499999999999 -s 2 -d 3 -p cbr -e 210 -c 2 -i 86 -a 2 -x {2.0 3.0 -1 ------- null}
r -t 0.425839999999999 -s 2 -d 3 -p cbr -e 210 -c 2 -i 84 -a 2 -x {2.0 3.0 84 ------- null}
+ -t 0.426249999999999 -s 2 -d 3 -p cbr -e 210 -c 2 -i 87 -a 2 -x {2.0 3.0 87 ------- null}
- -t 0.426249999999999 -s 2 -d 3 -p cbr -e 210 -c 2 -i 87 -a 2 -x {2.0 3.0 87 ------- null}
h -t 0.426249999999999 -s 2 -d 3 -p cbr -e 210 -c 2 -i 87 -a 2 -x {2.0 3.0 -1 ------- null}
r -t 0.429589999999999 -s 2 -d 3 -p cbr -e 210 -c 2 -i 85 -a 2 -x {2.0 3.0 85 ------- null}