+ 0.1 2 3 cbr 210 ------- 2 2.0 3.0 0 0
- 0.1 2 3 cbr 210 ------- 2 2.0 3.0 0 0
+ 0.10375 2 3 cbr 210 ------- 2 2.0 3.0 1 1
- 0.10375 2 3 cbr 210 ------- 2 2.0 3.0 1 1
+ 0.1075 2 3 cbr 210 ------- 2 2.0 3.0 2 2
- 0.1075 2 3 cbr 210 ------- 2 2.0 3.0 2 2
r 0.11084 2 3 cbr 210 ------- 2 2.0 3.0 0 0
+ 0.11125 2 3 cbr 210 ------- 2 2.0 3.0 3 3
- 0.11125 2 3 cbr 210 ------- 2 2.0 3.0 3 3
r 0.11459 2 3 cbr 210 ------- 2 2.0 3.0 1 1
+ 0.115 2 3 cbr 210 ------- 2 2.0 3.0 4 4
- 0.115 2 3 cbr 210 ------- 2 2.0 3.0 4 4
r 0.11834 2 3 cbr 210 ------- 2 2.0 3.0 2 2
+ 0.11875 2 3 cbr 210 ------- 2 2.0 3.0 5 5
- 0.11875 2 3 cbr 210 ------- 2 2.0 3.0 5 5
r 0.12209 2 3 cbr 210 ------- 2 2.0 3.0 3 3
+ 0.1225 2 3 cbr 210 ------- 2 2.0 3.0 6 6
- 0.1225 2 3 cbr 210 ------- 2 2.0 3.0 6 6
r 0.12584 2 3 cbr 210 ------- 2 2.0 3.0 4 4
+ 0.12625 2 3 cbr 210 ------- 2 2.0 3.0 7 7
- 0.12625 2 3 cbr 210 ------- 2 2.0 3.0 7 7
r 0.12959 2 3 cbr 210 ------- 2 2.0 3.0 5 5
+ 0.13 2 3 cbr 210 ------- 2 2.0 3.0 8 8
- 0.13 2 3 cbr 210 ------- 2 2.0 3.0 8 8
r 0.13334 2 3 cbr 210 ------- 2 2.0 3.0 6 6
+ 0.13375 2 3 cbr 210 ------- 2 2.0 3.0 9 9
- 0.13375 2 3 cbr 210 ------- 2 2.0 3.0 9 9
r 0.13709 2 3 cbr 210 ------- 2 2.0 3.0 7 7
+ 0.1375 2 3 cbr 210 ------- 2 2.0 3.0 10 10
- 0.1375 2 3 cbr 210 ------- 2 2.0 3.0 10 10
r 0.14084 2 3 cbr 210 ------- 2 2.0 3.0 8 8
+ 0.14125 2 3 cbr 210 ------- 2 2.0 3.0 11 11
- 0.14125 2 3 cbr 210 ------- 2 2.0 3.0 11 11
r 0.14459 2 3 cbr 210 ------- 2 2.0 3.0 9 9
+ 0.145 2 3 cbr 210 ------- 2 2.0 3.0 12 12
- 0.145 2 3 cbr 210 ------- 2 2.0 3.0 12 12
r 0.14834 2 3 cbr 210 ------- 2 2.0 3.0 10 10
+ 0.14875 2 3 cbr 210 ------- 2 2.0 3.0 13 13
- 0.14875 2 3 cbr 210 ------- 2 2.0 3.0 13 13
r 0.15209 2 3 cbr 210 ------- 2 2.0 3.0 11 11
+ 0.1525 2 3 cbr 210 ------- 2 2.0 3.0 14 14
- 0.1525 2 3 cbr 210 ------- 2 2.0 3.0 14 14
r 0.15584 2 3 cbr 210 ------- 2 2.0 3.0 12 12
+ 0.15625 2 3 cbr 210 ------- 2 2.0 3.0 15 15
- 0.15625 2 3 cbr 210 ------- 2 2.0 3.0 15 15
r 0.15959 2 3 cbr 210 ------- 2 2.0 3.0 13 13
+ 0.16 2 3 cbr 210 ------- 2 2.0 3.0 16 16
- 0.16 2 3 cbr 210 ------- 2 2.0 3.0 16 16
r 0.16334 2 3 cbr 210 ------- 2 2.0 3.0 14 14
+ 0.16375 2 3 cbr 210 ------- 2 2.0 3.0 17 17
- 0.16375 2 3 cbr 210 ------- 2 2.0 3.0 17 17
r 0.16709 2 3 cbr 210 ------- 2 2.0 3.0 15 15
+ 0.1675 2 3 cbr 210 ------- 2 2.0 3.0 18 18
- 0.1675 2 3 cbr 210 ------- 2 2.0 3.0 18 18
r 0.17084 2 3 cbr 210 ------- 2 2.0 3.0 16 16
+ 0.17125 2 3 cbr 210 ------- 2 2.0 3.0 19 19
- 0.17125 2 3 cbr 210 ------- 2 2.0 3.0 19 19
r 0.17459 2 3 cbr 210 ------- 2 2.0 3.0 17 17
+ 0.175 2 3 cbr 210 ------- 2 2.0 3.0 20 20
- 0.175 2 3 cbr 210 ------- 2 2.0 3.0 20 20
r 0.17834 2 3 cbr 210 ------- 2 2.0 3.0 18 18
+ 0.17875 2 3 cbr 210 ------- 2 2.0 3.0 21 21
- 0.17875 2 3 cbr 210 ------- 2 2.0 3.0 21 21
r 0.18209 2 3 cbr 210 ------- 2 2.0 3.0 19 19
+ 0.1825 2 3 cbr 210 ------- 2 2.0 3.0 22 22
- 0.1825 2 3 cbr 210 ------- 2 2.0 3.0 22 22
r 0.18584 2 3 cbr 210 ------- 2 2.0 3.0 20 20
+ 0.18625 2 3 cbr 210 ------- 2 2.0 3.0 23 23
- 0.18625 2 3 cbr 210 ------- 2 2.0 3.0 23 23
r 0.18959 2 3 cbr 210 ------- 2 2.0 3.0 21 21
+ 0.19 2 3 cbr 210 ------- 2 2.0 3.0 24 24
- 0.19 2 3 cbr 210 ------- 2 2.0 3.0 24 24
r 0.19334 2 3 cbr 210 ------- 2 2.0 3.0 22 22
+ 0.19375 2 3 cbr 210 ------- 2 2.0 3.0 25 25
- 0.19375 2 3 cbr 210 ------- 2 2.0 3.0 25 25
r 0.19709 2 3 cbr 210 ------- 2 2.0 3.0 23 23
+ 0.1975 2 3 cbr 210 ------- 2 2.0 3.0 26 26
- 0.1975 2 3 cbr 210 ------- 2 2.0 3.0 26 26
r 0.20084 2 3 cbr 210 ------- 2 2.0 3.0 24 24
+ 0.20125 2 3 cbr 210 ------- 2 2.0 3.0 27 27
- 0.20125 2 3 cbr 210 ------- 2 2.0 3.0 27 27
r 0.20459 2 3 cbr 210 ------- 2 2.0 3.0 25 25
+ 0.205 2 3 cbr 210 ------- 2 2.0 3.0 28 28
- 0.205 2 3 cbr 210 ------- 2 2.0 3.0 28 28
r 0.20834 2 3 cbr 210 ------- 2 2.0 3.0 26 26
+ 0.20875 2 3 cbr 210 ------- 2 2.0 3.0 29 29
- 0.20875 2 3 cbr 210 ------- 2 2.0 3.0 29 29
r 0.21209 2 3 cbr 210 ------- 2 2.0 3.0 27 27
+ 0.2125 2 3 cbr 210 ------- 2 2.0 3.0 30 30
- 0.2125 2 3 cbr 210 ------- 2 2.0 3.0 30 30
r 0.21584 2 3 cbr 210 ------- 2 2.0 3.0 28 28
+ 0.21625 2 3 cbr 210 ------- 2 2.0 3.0 31 31
- 0.21625 2 3 cbr 210 ------- 2 2.0 3.0 31 31
r 0.21959 2 3 cbr 210 ------- 2 2.0 3.0 29 29
+ 0.22 2 3 cbr 210 ------- 2 2.0 3.0 32 32
- 0.22 2 3 cbr 210 ------- 2 2.0 3.0 32 32
r 0.22334 2 3 cbr 210 ------- 2 2.0 3.0 30 30
+ 0.22375 2 3 cbr 210 ------- 2 2.0 3.0 33 33
- 0.22375 2 3 cbr 210 ------- 2 2.0 3.0 33 33
r 0.22709 2 3 cbr 210 ------- 2 2.0 3.0 31 31
+ 0.2275 2 3 cbr 210 ------- 2 2.0 3.0 34 34
- 0.2275 2 3 cbr 210 ------- 2 2.0 3.0 34 34
r 0.23084 2 3 cbr 210 ------- 2 2.0 3.0 32 32
+ 0.23125 2 3 cbr 210 ------- 2 2.0 3.0 35 35
- 0.23125 2 3 cbr 210 ------- 2 2.0 3.0 35 35
r 0.23459 2 3 cbr 210 ------- 2 2.0 3.0 33 33
+ 0.235 2 3 cbr 210 ------- 2 2.0 3.0 36 36
- 0.235 2 3 cbr 210 ------- 2 2.0 3.0 36 36
r 0.23834 2 3 cbr 210 ------- 2 2.0 3.0 34 34
+ 0.23875 2 3 cbr 210 ------- 2 2.0 3.0 37 37
- 0.23875 2 3 cbr 210 ------- 2 2.0 3.0 37 37
r 0.24209 2 3 cbr 210 ------- 2 2.0 3.0 35 35
+ 0.2425 2 3 cbr 210 ------- 2 2.0 3.0 38 38
- 0.2425 2 3 cbr 210 ------- 2 2.0 3.0 38 38
r 0.24584 2 3 cbr 210 ------- 2 2.0 3.0 36 36
+ 0.24625 2 3 cbr 210 ------- 2 2.0 3.0 39 39
- 0.24625 2 3 cbr 210 ------- 2 2.0 3.0 39 39
r 0.24959 2 3 cbr 210 ------- 2 2.0 3.0 37 37
+ 0.25 2 3 cbr 210 ------- 2 2.0 3.0 40 40
- 0.25 2 3 cbr 210 ------- 2 2.0 3.0 40 40
r 0.25334 2 3 cbr 210 ------- 2 2.0 3.0 38 38
+ 0.25375 2 3 cbr 210 ------- 2 2.0 3.0 41 41
- 0.25375 2 3 cbr 210 ------- 2 2.0 3.0 41 41
r 0.25709 2 3 cbr 210 ------- 2 2.0 3.0 39 39
+ 0.2575 2 3 cbr 210 ------- 2 2.0 3.0 42 42
- 0.2575 2 3 cbr 210 ------- 2 2.0 3.0 42 42
r 0.26084 2 3 cbr 210 ------- 2 2.0 3.0 40 40
+ 0.26125 2 3 cbr 210 ------- 2 2.0 3.0 43 43
- 0.26125 2 3 cbr 210 ------- 2 2.0 3.0 43 43
r 0.26459 2 3 cbr 210 ------- 2 2.0 3.0 41 41
+ 0.265 2 3 cbr 210 ------- 2 2.0 3.0 44 44
- 0.265 2 3 cbr 210 ------- 2 2.0 3.0 44 44
r 0.26834 2 3 cbr 210 ------- 2 2.0 3.0 42 42
+ 0.26875 2 3 cbr 210 ------- 2 2.0 3.0 45 45
- 0.26875 2 3 cbr 210 ------- 2 2.0 3.0 45 45
r 0.27209 2 3 cbr 210 ------- 2 2.0 3.0 43 43
+ 0.2725 2 3 cbr 210 ------- 2 2.0 3.0 46 46
- 0.2725 2 3 cbr 210 ------- 2 2.0 3.0 46 46
r 0.27584 2 3 cbr 210 ------- 2 2.0 3.0 44 44
+ 0.27625 2 3 cbr 210 ------- 2 2.0 3.0 47 47
- 0.27625 2 3 cbr 210 ------- 2 2.0 3.0 47 47
r 0.27959 2 3 cbr 210 ------- 2 2.0 3.0 45 45
+ 0.28 2 3 cbr 210 ------- 2 2.0 3.0 48 48
- 0.28 2 3 cbr 210 ------- 2 2.0 3.0 48 48
r 0.28334 2 3 cbr 210 ------- 2 2.0 3.0 46 46
+ 0.28375 2 3 cbr 210 ------- 2 2.0 3.0 49 49
- 0.28375 2 3 cbr 210 ------- 2 2.0 3.0 49 49
r 0.28709 2 3 cbr 210 ------- 2 2.0 3.0 47 47
+ 0.2875 2 3 cbr 210 ------- 2 2.0 3.0 50 50
- 0.2875 2 3 cbr 210 ------- 2 2.0 3.0 50 50
r 0.29084 2 3 cbr 210 ------- 2 2.0 3.0 48 48
+ 0.29125 2 3 cbr 210 ------- 2 2.0 3.0 51 51
- 0.29125 2 3 cbr 210 ------- 2 2.0 3.0 51 51
r 0.29459 2 3 cbr 210 ------- 2 2.0 3.0 49 49
+ 0.295 2 3 cbr 210 ------- 2 2.0 3.0 52 52
- 0.295 2 3 cbr 210 ------- 2 2.0 3.0 52 52
r 0.29834 2 3 cbr 210 ------- 2 2.0 3.0 50 50
+ 0.29875 2 3 cbr 210 ------- 2 2.0 3.0 53 53
- 0.29875 2 3 cbr 210 ------- 2 2.0 3.0 53 53
r 0.30209 2 3 cbr 210 ------- 2 2.0 3.0 51 51
+ 0.3025 2 3 cbr 210 ------- 2 2.0 3.0 54 54
- 0.3025 2 3 cbr 210 ------- 2 2.0 3.0 54 54
r 0.30584 2 3 cbr 210 ------- 2 2.0 3.0 52 52
+ 0.30625 2 3 cbr 210 ------- 2 2.0 3.0 55 55
- 0.30625 2 3 cbr 210 ------- 2 2.0 3.0 55 55
r 0.30959 2 3 cbr 210 ------- 2 2.0 3.0 53 53
+ 0.31 2 3 cbr 210 ------- 2 2.0 3.0 56 56
- 0.31 2 3 cbr 210 ------- 2 2.0 3.0 56 56
r 0.31334 2 3 cbr 210 ------- 2 2.0 3.0 54 54
+ 0.31375 2 3 cbr 210 ------- 2 2.0 3.0 57 57
- 0.31375 2 3 cbr 210 ------- 2 2.0 3.0 57 57
r 0.31709 2 3 cbr 210 ------- 2 2.0 3.0 55 55
+ 0.3175 2 3 cbr 210 ------- 2 2.0 3.0 58 58
- 0.3175 2 3 cbr 210 ------- 2 2.0 3.0 58 58
r 0.32084 2 3 cbr 210 ------- 2 2.0 3.0 56 56
+ 0.32125 2 3 cbr 210 ------- 2 2.0 3.0 59 59
- 0.32125 2 3 cbr 210 ------- 2 2.0 3.0 59 59
r 0.32459 2 3 cbr 210 ------- 2 2.0 3.0 57 57
+ 0.325 2 3 cbr 210 ------- 2 2.0 3.0 60 60
- 0.325 2 3 cbr 210 ------- 2 2.0 3.0 60 60
r 0.32834 2 3 cbr 210 ------- 2 2.0 3.0 58 58
+ 0.32875 2 3 cbr 210 ------- 2 2.0 3.0 61 61
- 0.32875 2 3 cbr 210 ------- 2 2.0 3.0 61 61
r 0.33209 2 3 cbr 210 ------- 2 2.0 3.0 59 59
+ 0.3325 2 3 cbr 210 ------- 2 2.0 3.0 62 62
- 0.3325 2 3 cbr 210 ------- 2 2.0 3.0 62 62
r 0.33584 2 3 cbr 210 ------- 2 2.0 3.0 60 60
+ 0.33625 2 3 cbr 210 ------- 2 2.0 3.0 63 63
- 0.33625 2 3 cbr 210 ------- 2 2.0 3.0 63 63
r 0.33959 2 3 cbr 210 ------- 2 2.0 3.0 61 61
+ 0.34 2 3 cbr 210 ------- 2 2.0 3.0 64 64
- 0.34 2 3 cbr 210 ------- 2 2.0 3.0 64 64
r 0.34334 2 3 cbr 210 ------- 2 2.0 3.0 62 62
+ 0.34375 2 3 cbr 210 ------- 2 2.0 3.0 65 65
- 0.34375 2 3 cbr 210 ------- 2 2.0 3.0 65 65
r 0.34709 2 3 cbr 210 ------- 2 2.0 3.0 63 63
+ 0.3475 2 3 cbr 210 ------- 2 2.0 3.0 66 66
- 0.3475 2 3 cbr 210 ------- 2 2.0 3.0 66 66
r 0.35084 2 3 cbr 210 ------- 2 2.0 3.0 64 64
+ 0.35125 2 3 cbr 210 ------- 2 2.0 3.0 67 67
- 0.35125 2 3 cbr 210 ------- 2 2.0 3.0 67 67
r 0.35459 2 3 cbr 210 ------- 2 2.0 3.0 65 65
+ 0.355 2 3 cbr 210 ------- 2 2.0 3.0 68 68
- 0.355 2 3 cbr 210 ------- 2 2.0 3.0 68 68
r 0.35834 2 3 cbr 210 ------- 2 2.0 3.0 66 66
+ 0.35875 2 3 cbr 210 ------- 2 2.0 3.0 69 69
- 0.35875 2 3 cbr 210 ------- 2 2.0 3.0 69 69
r 0.36209 2 3 cbr 210 ------- 2 2.0 3.0 67 67
+ 0.3625 2 3 cbr 210 ------- 2 2.0 3.0 70 70
- 0.3625 2 3 cbr 210 ------- 2 2.0 3.0 70 70
r 0.36584 2 3 cbr 210 ------- 2 2.0 3.0 68 68
+ 0.36625 2 3 cbr 210 ------- 2 2.0 3.0 71 71
- 0.36625 2 3 cbr 210 ------- 2 2.0 3.0 71 71
r 0.36959 2 3 cbr 210 ------- 2 2.0 3.0 69 69
+ 0.37 2 3 cbr 210 ------- 2 2.0 3.0 72 72
- 0.37 2 3 cbr 210 ------- 2 2.0 3.0 72 72
r 0.37334 2 3 cbr 210 ------- 2 2.0 3.0 70 70
+ 0.37375 2 3 cbr 210 ------- 2 2.0 3.0 73 73
- 0.37375 2 3 cbr 210 ------- 2 2.0 3.0 73 73
r 0.37709 2 3 cbr 210 ------- 2 2.0 3.0 71 71
+ 0.3775 2 3 cbr 210 ------- 2 2.0 3.0 74 74
- 0.3775 2 3 cbr 210 ------- 2 2.0 3.0 74 74
r 0.38084 2 3 cbr 210 ------- 2 2.0 3.0 72 72
+ 0.38125 2 3 cbr 210 ------- 2 2.0 3.0 75 75
- 0.38125 2 3 cbr 210 ------- 2 2.0 3.0 75 75
r 0.38459 2 3 cbr 210 ------- 2 2.0 3.0 73 73
+ 0.385 2 3 cbr 210 ------- 2 2.0 3.0 76 76
- 0.385 2 3 cbr 210 ------- 2 2.0 3.0 76 76
r 0.38834 2 3 cbr 210 ------- 2 2.0 3.0 74 74
+ 0.38875 2 3 cbr 210 ------- 2 2.0 3.0 77 77
- 0.38875 2 3 cbr 210 ------- 2 2.0 3.0 77 77
r 0.39209 2 3 cbr 210 ------- 2 2.0 3.0 75 75
+ 0.3925 2 3 cbr 210 ------- 2 2.0 3.0 78 78
- 0.3925 2 3 cbr 210 ------- 2 2.0 3.0 78 78
r 0.39584 2 3 cbr 210 ------- 2 2.0 3.0 76 76
+ 0.39625 2 3 cbr 210 ------- 2 2.0 3.0 79 79
- 0.39625 2 3 cbr 210 ------- 2 2.0 3.0 79 79
r 0.39959 2 3 cbr 210 ------- 2 2.0 3.0 77 77
+ 0.4 2 3 cbr 210 ------- 2 2.0 3.0 80 80
- 0.4 2 3 cbr 210 ------- 2 2.0 3.0 80 80
r 0.40334 2 3 cbr 210 ------- 2 2.0 3.0 78 78
+ 0.40375 2 3 cbr 210 ------- 2 2.0 3.0 81 81
- 0.40375 2 3 cbr 210 ------- 2 2.0 3.0 81 81
r 0.40709 2 3 cbr 210 ------- 2 2.0 3.0 79 79
+ 0.4075 2 3 cbr 210 ------- 2 2.0 3.0 82 82
- 0.4075 2 3 cbr 210 ------- 2 2.0 3.0 82 82
r 0.41084 2 3 cbr 210 ------- 2 2.0 3.0 80 80
+ 0.41125 2 3 cbr 210 ------- 2 2.0 3.0 83 83
- 0.41125 2 3 cbr 210 ------- 2 2.0 3.0 83 83
r 0.41459 2 3 cbr 210 ------- 2 2.0 3.0 81 81
+ 0.415 2 3 cbr 210 ------- 2 2.0 3.0 84 84
- 0.415 2 3 cbr 210 ------- 2 2.0 3.0 84 84
r 0.41834 2 3 cbr 210 ------- 2 2.0 3.0 82 82
+ 0.41875 2 3 cbr 210 ------- 2 2.0 3.0 85 85
- 0.41875 2 3 cbr 210 ------- 2 2.0 3.0 85 85
r 0.42209 2 3 cbr 210 ------- 2 2.0 3.0 83 83
+ 0.4225 2 3 cbr 210 ------- 2 2.0 3.0 86 86
- 0.4225 2 3 cbr 210 ------- 2 2.0 3.0 86 86
r 0.42584 2 3 cbr 210 ------- 2 2.0 3.0 84 84
+ 0.42625 2 3 cbr 210 ------- 2 2.0 3.0 87 87
- 0.42625 2 3 cbr 210 ------- 2 2.0 3.0 87 87
r 0.42959 2 3 cbr 210 ------- 2 2.0 3.0 85 85
+ 0.43 2 3 cbr 210 ------- 2 2.0 3.0 88 88
- 0.43 2 3 cbr 210 ------- 2 2.0 3.0 88 88
r 0.43334 2 3 cbr 210 ------- 2 2.0 3.0 86 86
+ 0.43375 2 3 cbr 210 ------- 2 2.0 3.0 89 89
- 0.43375 2 3 cbr 210 ------- 2 2.0 3.0 89 89
r 0.43709 2 3 cbr 210 ------- 2 2.0 3.0 87 87
+ 0.4375 2 3 cbr 210 ------- 2 2.0 3.0 90 90
- 0.4375 2 3 cbr 210 ------- 2 2.0 3.0 90 90
r 0.44084 2 3 cbr 210 ------- 2 2.0 3.0 88 88
+ 0.44125 2 3 cbr 210 ------- 2 2.0 3.0 91 91
- 0.44125 2 3 cbr 210 ------- 2 2.0 3.0 91 91
r 0.44459 2 3 cbr 210 ------- 2 2.0 3.0 89 89
+ 0.445 2 3 cbr 210 ------- 2 2.0 3.0 92 92
- 0.445 2 3 cbr 210 ------- 2 2.0 3.0 92 92
r 0.44834 2 3 cbr 210 ------- 2 2.0 3.0 90 90
+ 0.44875 2 3 cbr 210 ------- 2 2.0 3.0 93 93
- 0.44875 2 3 cbr 210 ------- 2 2.0 3.0 93 93
r 0.45209 2 3 cbr 210 ------- 2 2.0 3.0 91 91
+ 0.4525 2 3 cbr 210 ------- 2 2.0 3.0 94 94
- 0.4525 2 3 cbr 210 ------- 2 2.0 3.0 94 94
r 0.45584 2 3 cbr 210 ------- 2 2.0 3.0 92 92
+ 0.45625 2 3 cbr 210 ------- 2 2.0 3.0 95 95
- 0.45625 2 3 cbr 210 ------- 2 2.0 3.0 95 95
r 0.45959 2 3 cbr 210 ------- 2 2.0 3.0 93 93
+ 0.46 2 3 cbr 210 ------- 2 2.0 3.0 96 96
- 0.46 2 3 cbr 210 ------- 2 2.0 3.0 96 96
r 0.46334 2 3 cbr 210 ------- 2 2.0 3.0 94 94
+ 0.46375 2 3 cbr 210 ------- 2 2.0 3.0 97 97
- 0.46375 2 3 cbr 210 ------- 2 2.0 3.0 97 97
r 0.46709 2 3 cbr 210 ------- 2 2.0 3.0 95 95
+ 0.4675 2 3 cbr 210 ------- 2 2.0 3.0 98 98
- 0.4675 2 3 cbr 210 ------- 2 2.0 3.0 98 98
r 0.47084 2 3 cbr 210 ------- 2 2.0 3.0 96 96
+ 0.47125 2 3 cbr 210 ------- 2 2.0 3.0 99 99
- 0.47125 2 3 cbr 210 ------- 2 2.0 3.0 99 99
r 0.47459 2 3 cbr 210 ------- 2 2.0 3.0 97 97
+ 0.475 2 3 cbr 210 ------- 2 2.0 3.0 100 100
- 0.475 2 3 cbr 210 ------- 2 2.0 3.0 100 100
r 0.47834 2 3 cbr 210 ------- 2 2.0 3.0 98 98
+ 0.47875 2 3 cbr 210 ------- 2 2.0 3.0 101 101
- 0.47875 2 3 cbr 210 ------- 2 2.0 3.0 101 101
r 0.48209 2 3 cbr 210 ------- 2 2.0 3.0 99 99
+ 0.4825 2 3 cbr 210 ------- 2 2.0 3.0 102 102
- 0.4825 2 3 cbr 210 ------- 2 2.0 3.0 102 102
r 0.48584 2 3 cbr 210 ------- 2 2.0 3.0 100 100
+ 0.48625 2 3 cbr 210 ------- 2 2.0 3.0 103 103
- 0.48625 2 3 cbr 210 ------- 2 2.0 3.0 103 103
r 0.48959 2 3 cbr 210 ------- 2 2.0 3.0 101 101
+ 0.49 2 3 cbr 210 ------- 2 2.0 3.0 104 104
- 0.49 2 3 cbr 210 ------- 2 2.0 3.0 104 104
r 0.49334 2 3 cbr 210 ------- 2 2.0 3.0 102 102
+ 0.49375 2 3 cbr 210 ------- 2 2.0 3.0 105 105
- 0.49375 2 3 cbr 210 ------- 2 2.0 3.0 105 105
r 0.49709 2 3 cbr 210 ------- 2 2.0 3.0 103 103
+ 0.4975 2 3 cbr 210 ------- 2 2.0 3.0 106 106
- 0.4975 2 3 cbr 210 ------- 2 2.0 3.0 106 106
r 0.50084 2 3 cbr 210 ------- 2 2.0 3.0 104 104
+ 0.50125 2 3 cbr 210 ------- 2 2.0 3.0 107 107
- 0.50125 2 3 cbr 210 ------- 2 2.0 3.0 107 107
r 0.50459 2 3 cbr 210 ------- 2 2.0 3.0 105 105
+ 0.505 2 3 cbr 210 ------- 2 2.0 3.0 108 108
- 0.505 2 3 cbr 210 ------- 2 2.0 3.0 108 108
r 0.50834 2 3 cbr 210 ------- 2 2.0 3.0 106 106
+ 0.50875 2 3 cbr 210 ------- 2 2.0 3.0 109 109
- 0.50875 2 3 cbr 210 ------- 2 2.0 3.0 109 109
r 0.51209 2 3 cbr 210 ------- 2 2.0 3.0 107 107
+ 0.5125 2 3 cbr 210 ------- 2 2.0 3.0 110 110
- 0.5125 2 3 cbr 210 ------- 2 2.0 3.0 110 110
r 0.51584 2 3 cbr 210 ------- 2 2.0 3.0 108 108
+ 0.51625 2 3 cbr 210 ------- 2 2.0 3.0 111 111
- 0.51625 2 3 cbr 210 ------- 2 2.0 3.0 111 111
r 0.51959 2 3 cbr 210 ------- 2 2.0 3.0 109 109
+ 0.52 2 3 cbr 210 ------- 2 2.0 3.0 112 112
- 0.52 2 3 cbr 210 ------- 2 2.0 3.0 112 112
r 0.52334 2 3 cbr 210 ------- 2 2.0 3.0 110 110
+ 0.52375 2 3 cbr 210 ------- 2 2.0 3.0 113 113
- 0.52375 2 3 cbr 210 ------- 2 2.0 3.0 113 113
r 0.52709 2 3 cbr 210 ------- 2 2.0 3.0 111 111
+ 0.5275 2 3 cbr 210 ------- 2 2.0 3.0 114 114
- 0.5275 2 3 cbr 210 ------- 2 2.0 3.0 114 114
r 0.53084 2 3 cbr 210 ------- 2 2.0 3.0 112 112
+ 0.53125 2 3 cbr 210 ------- 2 2.0 3.0 115 115
- 0.53125 2 3 cbr 210 ------- 2 2.0 3.0 115 115
r 0.53459 2 3 cbr 210 ------- 2 2.0 3.0 113 113
+ 0.535 2 3 cbr 210 ------- 2 2.0 3.0 116 116
- 0.535 2 3 cbr 210 ------- 2 2.0 3.0 116 116
r 0.53834 2 3 cbr 210 ------- 2 2.0 3.0 114 114
+ 0.53875 2 3 cbr 210 ------- 2 2.0 3.0 117 117
- 0.53875 2 3 cbr 210 ------- 2 2.0 3.0 117 117
r 0.54209 2 3 cbr 210 ------- 2 2.0 3.0 115 115
+ 0.5425 2 3 cbr 210 ------- 2 2.0 3.0 118 118
- 0.5425 2 3 cbr 210 ------- 2 2.0 3.0 118 118
r 0.54584 2 3 cbr 210 ------- 2 2.0 3.0 116 116
+ 0.54625 2 3 cbr 210 ------- 2 2.0 3.0 119 119
- 0.54625 2 3 cbr 210 ------- 2 2.0 3.0 119 119
r 0.54959 2 3 cbr 210 ------- 2 2.0 3.0 117 117
+ 0.55 2 3 cbr 210 ------- 2 2.0 3.0 120 120
- 0.55 2 3 cbr 210 ------- 2 2.0 3.0 120 120
r 0.55334 2 3 cbr 210 ------- 2 2.0 3.0 118 118
+ 0.55375 2 3 cbr 210 ------- 2 2.0 3.0 121 121
- 0.55375 2 3 cbr 210 ------- 2 2.0 3.0 121 121
r 0.55709 2 3 cbr 210 ------- 2 2.0 3.0 119 119
+ 0.5575 2 3 cbr 210 ------- 2 2.0 3.0 122 122
- 0.5575 2 3 cbr 210 ------- 2 2.0 3.0 122 122
r 0.56084 2 3 cbr 210 ------- 2 2.0 3.0 120 120
+ 0.56125 2 3 cbr 210 ------- 2 2.0 3.0 123 123
- 0.56125 2 3 cbr 210 ------- 2 2.0 3.0 123 123
r 0.56459 2 3 cbr 210 ------- 2 2.0 3.0 121 121
+ 0.565 2 3 cbr 210 ------- 2 2.0 3.0 124 124
- 0.565 2 3 cbr 210 ------- 2 2.0 3.0 124 124
r 0.56834 2 3 cbr 210 ------- 2 2.0 3.0 122 122
+ 0.56875 2 3 cbr 210 ------- 2 2.0 3.0 125 125
- 0.56875 2 3 cbr 210 ------- 2 2.0 3.0 125 125
r 0.57209 2 3 cbr 210 ------- 2 2.0 3.0 123 123
+ 0.5725 2 3 cbr 210 ------- 2 2.0 3.0 126 126
- 0.5725 2 3 cbr 210 ------- 2 2.0 3.0 126 126
r 0.57584 2 3 cbr 210 ------- 2 2.0 3.0 124 124
+ 0.57625 2 3 cbr 210 ------- 2 2.0 3.0 127 127
- 0.57625 2 3 cbr 210 ------- 2 2.0 3.0 127 127
r 0.57959 2 3 cbr 210 ------- 2 2.0 3.0 125 125
+ 0.58 2 3 cbr 210 ------- 2 2.0 3.0 128 128
- 0.58 2 3 cbr 210 ------- 2 2.0 3.0 128 128
r 0.58334 2 3 cbr 210 ------- 2 2.0 3.0 126 126
+ 0.58375 2 3 cbr 210 ------- 2 2.0 3.0 129 129
- 0.58375 2 3 cbr 210 ------- 2 2.0 3.0 129 129
r 0.58709 2 3 cbr 210 ------- 2 2.0 3.0 127 127
+ 0.5875 2 3 cbr 210 ------- 2 2.0 3.0 130 130
- 0.5875 2 3 cbr 210 ------- 2 2.0 3.0 130 130
r 0.59084 2 3 cbr 210 ------- 2 2.0 3.0 128 128
+ 0.59125 2 3 cbr 210 ------- 2 2.0 3.0 131 131
- 0.59125 2 3 cbr 210 ------- 2 2.0 3.0 131 131
r 0.59459 2 3 cbr 210 ------- 2 2.0 3.0 129 129
+ 0.595 2 3 cbr 210 ------- 2 2.0 3.0 132 132
- 0.595 2 3 cbr 210 ------- 2 2.0 3.0 132 132
r 0.59834 2 3 cbr 210 ------- 2 2.0 3.0 130 130
+ 0.59875 2 3 cbr 210 ------- 2 2.0 3.0 133 133
- 0.59875 2 3 cbr 210 ------- 2 2.0 3.0 133 133
r 0.60209 2 3 cbr 210 ------- 2 2.0 3.0 131 131
+ 0.6025 2 3 cbr 210 ------- 2 2.0 3.0 134 134
- 0.6025 2 3 cbr 210 ------- 2 2.0 3.0 134 134
r 0.60584 2 3 cbr 210 ------- 2 2.0 3.0 132 132
+ 0.60625 2 3 cbr 210 ------- 2 2.0 3.0 135 135
- 0.60625 2 3 cbr 210 ------- 2 2.0 3.0 135 135
r 0.60959 2 3 cbr 210 ------- 2 2.0 3.0 133 133
+ 0.61 2 3 cbr 210 ------- 2 2.0 3.0 136 136
- 0.61 2 3 cbr 210 ------- 2 2.0 3.0 136 136
r 0.61334 2 3 cbr 210 ------- 2 2.0 3.0 134 134
+ 0.61375 2 3 cbr 210 ------- 2 2.0 3.0 137 137
- 0.61375 2 3 cbr 210 ------- 2 2.0 3.0 137 137
r 0.61709 2 3 cbr 210 ------- 2 2.0 3.0 135 135
+ 0.6175 2 3 cbr 210 ------- 2 2.0 3.0 138 138
- 0.6175 2 3 cbr 210 ------- 2 2.0 3.0 138 138
r 0.62084 2 3 cbr 210 ------- 2 2.0 3.0 136 136
+ 0.62125 2 3 cbr 210 ------- 2 2.0 3.0 139 139
- 0.62125 2 3 cbr 210 ------- 2 2.0 3.0 139 139
r 0.62459 2 3 cbr 210 ------- 2 2.0 3.0 137 137
+ 0.625 2 3 cbr 210 ------- 2 2.0 3.0 140 140
- 0.625 2 3 cbr 210 ------- 2 2.0 3.0 140 140
r 0.62834 2 3 cbr 210 ------- 2 2.0 3.0 138 138
+ 0.62875 2 3 cbr 210 ------- 2 2.0 3.0 141 141
- 0.62875 2 3 cbr 210 ------- 2 2.0 3.0 141 141
r 0.63209 2 3 cbr 210 ------- 2 2.0 3.0 139 139
+ 0.6325 2 3 cbr 210 ------- 2 2.0 3.0 142 142
- 0.6325 2 3 cbr 210 ------- 2 2.0 3.0 142 142
r 0.63584 2 3 cbr 210 ------- 2 2.0 3.0 140 140
+ 0.63625 2 3 cbr 210 ------- 2 2.0 3.0 143 143
- 0.63625 2 3 cbr 210 ------- 2 2.0 3.0 143 143
r 0.63959 2 3 cbr 210 ------- 2 2.0 3.0 141 141
+ 0.64 2 3 cbr 210 ------- 2 2.0 3.0 144 144
- 0.64 2 3 cbr 210 ------- 2 2.0 3.0 144 144
r 0.64334 2 3 cbr 210 ------- 2 2.0 3.0 142 142
+ 0.64375 2 3 cbr 210 ------- 2 2.0 3.0 145 145
- 0.64375 2 3 cbr 210 ------- 2 2.0 3.0 145 145
r 0.64709 2 3 cbr 210 ------- 2 2.0 3.0 143 143
+ 0.6475 2 3 cbr 210 ------- 2 2.0 3.0 146 146
- 0.6475 2 3 cbr 210 ------- 2 2.0 3.0 146 146
r 0.65084 2 3 cbr 210 ------- 2 2.0 3.0 144 144
+ 0.65125 2 3 cbr 210 ------- 2 2.0 3.0 147 147
- 0.65125 2 3 cbr 210 ------- 2 2.0 3.0 147 147
r 0.65459 2 3 cbr 210 ------- 2 2.0 3.0 145 145
+ 0.655 2 3 cbr 210 ------- 2 2.0 3.0 148 148
- 0.655 2 3 cbr 210 ------- 2 2.0 3.0 148 148
r 0.65834 2 3 cbr 210 ------- 2 2.0 3.0 146 146
+ 0.65875 2 3 cbr 210 ------- 2 2.0 3.0 149 149
- 0.65875 2 3 cbr 210 ------- 2 2.0 3.0 149 149
r 0.66209 2 3 cbr 210 ------- 2 2.0 3.0 147 147
+ 0.6625 2 3 cbr 210 ------- 2 2.0 3.0 150 150
- 0.6625 2 3 cbr 210 ------- 2 2.0 3.0 150 150
r 0.66584 2 3 cbr 210 ------- 2 2.0 3.0 148 148
+ 0.66625 2 3 cbr 210 ------- 2 2.0 3.0 151 151
- 0.66625 2 3 cbr 210 ------- 2 2.0 3.0 151 151
r 0.66959 2 3 cbr 210 ------- 2 2.0 3.0 149 149
+ 0.67 2 3 cbr 210 ------- 2 2.0 3.0 152 152
- 0.67 2 3 cbr 210 ------- 2 2.0 3.0 152 152
r 0.67334 2 3 cbr 210 ------- 2 2.0 3.0 150 150
+ 0.67375 2 3 cbr 210 ------- 2 2.0 3.0 153 153
- 0.67375 2 3 cbr 210 ------- 2 2.0 3.0 153 153
r 0.67709 2 3 cbr 210 ------- 2 2.0 3.0 151 151
+ 0.6775 2 3 cbr 210 ------- 2 2.0 3.0 154 154
- 0.6775 2 3 cbr 210 ------- 2 2.0 3.0 154 154
r 0.68084 2 3 cbr 210 ------- 2 2.0 3.0 152 152
+ 0.68125 2 3 cbr 210 ------- 2 2.0 3.0 155 155
- 0.68125 2 3 cbr 210 ------- 2 2.0 3.0 155 155
r 0.68459 2 3 cbr 210 ------- 2 2.0 3.0 153 153
+ 0.685 2 3 cbr 210 ------- 2 2.0 3.0 156 156
- 0.685 2 3 cbr 210 ------- 2 2.0 3.0 156 156
r 0.68834 2 3 cbr 210 ------- 2 2.0 3.0 154 154
+ 0.68875 2 3 cbr 210 ------- 2 2.0 3.0 157 157
- 0.68875 2 3 cbr 210 ------- 2 2.0 3.0 157 157
r 0.69209 2 3 cbr 210 ------- 2 2.0 3.0 155 155
+ 0.6925 2 3 cbr 210 ------- 2 2.0 3.0 158 158
- 0.6925 2 3 cbr 210 ------- 2 2.0 3.0 158 158
r 0.69584 2 3 cbr 210 ------- 2 2.0 3.0 156 156
+ 0.69625 2 3 cbr 210 ------- 2 2.0 3.0 159 159
- 0.69625 2 3 cbr 210 ------- 2 2.0 3.0 159 159
r 0.69959 2 3 cbr 210 ------- 2 2.0 3.0 157 157
+ 0.7 2 3 cbr 210 ------- 2 2.0 3.0 160 160
- 0.7 2 3 cbr 210 ------- 2 2.0 3.0 160 160
r 0.70334 2 3 cbr 210 ------- 2 2.0 3.0 158 158
+ 0.70375 2 3 cbr 210 ------- 2 2.0 3.0 161 161
- 0.70375 2 3 cbr 210 ------- 2 2.0 3.0 161 161
r 0.70709 2 3 cbr 210 ------- 2 2.0 3.0 159 159
+ 0.7075 2 3 cbr 210 ------- 2 2.0 3.0 162 162
- 0.7075 2 3 cbr 210 ------- 2 2.0 3.0 162 162
r 0.71084 2 3 cbr 210 ------- 2 2.0 3.0 160 160
+ 0.71125 2 3 cbr 210 ------- 2 2.0 3.0 163 163
- 0.71125 2 3 cbr 210 ------- 2 2.0 3.0 163 163
r 0.71459 2 3 cbr 210 ------- 2 2.0 3.0 161 161
+ 0.715 2 3 cbr 210 ------- 2 2.0 3.0 164 164
- 0.715 2 3 cbr 210 ------- 2 2.0 3.0 164 164
r 0.71834 2 3 cbr 210 ------- 2 2.0 3.0 162 162
+ 0.71875 2 3 cbr 210 ------- 2 2.0 3.0 165 165
- 0.71875 2 3 cbr 210 ------- 2 2.0 3.0 165 165
r 0.72209 2 3 cbr 210 ------- 2 2.0 3.0 163 163
+ 0.7225 2 3 cbr 210 ------- 2 2.0 3.0 166 166
- 0.7225 2 3 cbr 210 ------- 2 2.0 3.0 166 166
r 0.72584 2 3 cbr 210 ------- 2 2.0 3.0 164 164
+ 0.72625 2 3 cbr 210 ------- 2 2.0 3.0 167 167
- 0.72625 2 3 cbr 210 ------- 2 2.0 3.0 167 167
r 0.72959 2 3 cbr 210 ------- 2 2.0 3.0 165 165
+ 0.73 2 3 cbr 210 ------- 2 2.0 3.0 168 168
- 0.73 2 3 cbr 210 ------- 2 2.0 3.0 168 168
r 0.73334 2 3 cbr 210 ------- 2 2.0 3.0 166 166
+ 0.73375 2 3 cbr 210 ------- 2 2.0 3.0 169 169
- 0.73375 2 3 cbr 210 ------- 2 2.0 3.0 169 169
r 0.73709 2 3 cbr 210 ------- 2 2.0 3.0 167 167
+ 0.7375 2 3 cbr 210 ------- 2 2.0 3.0 170 170
- 0.7375 2 3 cbr 210 ------- 2 2.0 3.0 170 170
r 0.74084 2 3 cbr 210 ------- 2 2.0 3.0 168 168
+ 0.74125 2 3 cbr 210 ------- 2 2.0 3.0 171 171
- 0.74125 2 3 cbr 210 ------- 2 2.0 3.0 171 171
r 0.74459 2 3 cbr 210 ------- 2 2.0 3.0 169 169
+ 0.745 2 3 cbr 210 ------- 2 2.0 3.0 172 172
- 0.745 2 3 cbr 210 ------- 2 2.0 3.0 172 172
r 0.74834 2 3 cbr 210 ------- 2 2.0 3.0 170 170
+ 0.74875 2 3 cbr 210 ------- 2 2.0 3.0 173 173
- 0.74875 2 3 cbr 210 ------- 2 2.0 3.0 173 173
r 0.75209 2 3 cbr 210 ------- 2 2.0 3.0 171 171
+ 0.7525 2 3 cbr 210 ------- 2 2.0 3.0 174 174
- 0.7525 2 3 cbr 210 ------- 2 2.0 3.0 174 174
r 0.75584 2 3 cbr 210 ------- 2 2.0 3.0 172 172
+ 0.75625 2 3 cbr 210 ------- 2 2.0 3.0 175 175
- 0.75625 2 3 cbr 210 ------- 2 2.0 3.0 175 175
r 0.75959 2 3 cbr 210 ------- 2 2.0 3.0 173 173
+ 0.76 2 3 cbr 210 ------- 2 2.0 3.0 176 176
- 0.76 2 3 cbr 210 ------- 2 2.0 3.0 176 176
r 0.76334 2 3 cbr 210 ------- 2 2.0 3.0 174 174
+ 0.76375 2 3 cbr 210 ------- 2 2.0 3.0 177 177
- 0.76375 2 3 cbr 210 ------- 2 2.0 3.0 177 177
r 0.76709 2 3 cbr 210 ------- 2 2.0 3.0 175 175
+ 0.7675 2 3 cbr 210 ------- 2 2.0 3.0 178 178
- 0.7675 2 3 cbr 210 ------- 2 2.0 3.0 178 178
r 0.77084 2 3 cbr 210 ------- 2 2.0 3.0 176 176
+ 0.77125 2 3 cbr 210 ------- 2 2.0 3.0 179 179
- 0.77125 2 3 cbr 210 ------- 2 2.0 3.0 179 179
r 0.77459 2 3 cbr 210 ------- 2 2.0 3.0 177 177
+ 0.775 2 3 cbr 210 ------- 2 2.0 3.0 180 180
- 0.775 2 3 cbr 210 ------- 2 2.0 3.0 180 180
r 0.77834 2 3 cbr 210 ------- 2 2.0 3.0 178 178
+ 0.77875 2 3 cbr 210 ------- 2 2.0 3.0 181 181
- 0.77875 2 3 cbr 210 ------- 2 2.0 3.0 181 181
r 0.78209 2 3 cbr 210 ------- 2 2.0 3.0 179 179
+ 0.7825 2 3 cbr 210 ------- 2 2.0 3.0 182 182
- 0.7825 2 3 cbr 210 ------- 2 2.0 3.0 182 182
r 0.78584 2 3 cbr 210 ------- 2 2.0 3.0 180 180
+ 0.78625 2 3 cbr 210 ------- 2 2.0 3.0 183 183
- 0.78625 2 3 cbr 210 ------- 2 2.0 3.0 183 183
r 0.78959 2 3 cbr 210 ------- 2 2.0 3.0 181 181
+ 0.79 2 3 cbr 210 ------- 2 2.0 3.0 184 184
- 0.79 2 3 cbr 210 ------- 2 2.0 3.0 184 184
r 0.79334 2 3 cbr 210 ------- 2 2.0 3.0 182 182
+ 0.79375 2 3 cbr 210 ------- 2 2.0 3.0 185 185
- 0.79375 2 3 cbr 210 ------- 2 2.0 3.0 185 185
r 0.79709 2 3 cbr 210 ------- 2 2.0 3.0 183 183
+ 0.7975 2 3 cbr 210 ------- 2 2.0 3.0 186 186
- 0.7975 2 3 cbr 210 ------- 2 2.0 3.0 186 186
r 0.80084 2 3 cbr 210 ------- 2 2.0 3.0 184 184
+ 0.80125 2 3 cbr 210 ------- 2 2.0 3.0 187 187
- 0.80125 2 3 cbr 210 ------- 2 2.0 3.0 187 187
r 0.80459 2 3 cbr 210 ------- 2 2.0 3.0 185 185
+ 0.805 2 3 cbr 210 ------- 2 2.0 3.0 188 188
- 0.805 2 3 cbr 210 ------- 2 2.0 3.0 188 188
r 0.80834 2 3 cbr 210 ------- 2 2.0 3.0 186 186
+ 0.80875 2 3 cbr 210 ------- 2 2.0 3.0 189 189
- 0.80875 2 3 cbr 210 ------- 2 2.0 3.0 189 189
r 0.81209 2 3 cbr 210 ------- 2 2.0 3.0 187 187
+ 0.8125 2 3 cbr 210 ------- 2 2.0 3.0 190 190
- 0.8125 2 3 cbr 210 ------- 2 2.0 3.0 190 190
r 0.81584 2 3 cbr 210 ------- 2 2.0 3.0 188 188
+ 0.81625 2 3 cbr 210 ------- 2 2.0 3.0 191 191
- 0.81625 2 3 cbr 210 ------- 2 2.0 3.0 191 191
r 0.81959 2 3 cbr 210 ------- 2 2.0 3.0 189 189
+ 0.82 2 3 cbr 210 ------- 2 2.0 3.0 192 192
- 0.82 2 3 cbr 210 ------- 2 2.0 3.0 192 192
r 0.82334 2 3 cbr 210 ------- 2 2.0 3.0 190 190
+ 0.82375 2 3 cbr 210 ------- 2 2.0 3.0 193 193
- 0.82375 2 3 cbr 210 ------- 2 2.0 3.0 193 193
r 0.82709 2 3 cbr 210 ------- 2 2.0 3.0 191 191
+ 0.8275 2 3 cbr 210 ------- 2 2.0 3.0 194 194
- 0.8275 2 3 cbr 210 ------- 2 2.0 3.0 194 194
r 0.83084 2 3 cbr 210 ------- 2 2.0 3.0 192 192
+ 0.83125 2 3 cbr 210 ------- 2 2.0 3.0 195 195
- 0.83125 2 3 cbr 210 ------- 2 2.0 3.0 195 195
r 0.83459 2 3 cbr 210 ------- 2 2.0 3.0 193 193
+ 0.835 2 3 cbr 210 ------- 2 2.0 3.0 196 196
- 0.835 2 3 cbr 210 ------- 2 2.0 3.0 196 196
r 0.83834 2 3 cbr 210 ------- 2 2.0 3.0 194 194
+ 0.83875 2 3 cbr 210 ------- 2 2.0 3.0 197 197
- 0.83875 2 3 cbr 210 ------- 2 2.0 3.0 197 197
r 0.84209 2 3 cbr 210 ------- 2 2.0 3.0 195 195
+ 0.8425 2 3 cbr 210 ------- 2 2.0 3.0 198 198
- 0.8425 2 3 cbr 210 ------- 2 2.0 3.0 198 198
r 0.84584 2 3 cbr 210 ------- 2 2.0 3.0 196 196
+ 0.84625 2 3 cbr 210 ------- 2 2.0 3.0 199 199
- 0.84625 2 3 cbr 210 ------- 2 2.0 3.0 199 199
r 0.84959 2 3 cbr 210 ------- 2 2.0 3.0 197 197
+ 0.85 2 3 cbr 210 ------- 2 2.0 3.0 200 200
- 0.85 2 3 cbr 210 ------- 2 2.0 3.0 200 200
r 0.85334 2 3 cbr 210 ------- 2 2.0 3.0 198 198
+ 0.85375 2 3 cbr 210 ------- 2 2.0 3.0 201 201
- 0.85375 2 3 cbr 210 ------- 2 2.0 3.0 201 201
r 0.85709 2 3 cbr 210 ------- 2 2.0 3.0 199 199
+ 0.8575 2 3 cbr 210 ------- 2 2.0 3.0 202 202
- 0.8575 2 3 cbr 210 ------- 2 2.0 3.0 202 202
r 0.86084 2 3 cbr 210 ------- 2 2.0 3.0 200 200
+ 0.86125 2 3 cbr 210 ------- 2 2.0 3.0 203 203
- 0.86125 2 3 cbr 210 ------- 2 2.0 3.0 203 203
r 0.86459 2 3 cbr 210 ------- 2 2.0 3.0 201 201
+ 0.865 2 3 cbr 210 ------- 2 2.0 3.0 204 204
- 0.865 2 3 cbr 210 ------- 2 2.0 3.0 204 204
r 0.86834 2 3 cbr 210 ------- 2 2.0 3.0 202 202
+ 0.86875 2 3 cbr 210 ------- 2 2.0 3.0 205 205
- 0.86875 2 3 cbr 210 ------- 2 2.0 3.0 205 205
r 0.87209 2 3 cbr 210 ------- 2 2.0 3.0 203 203
+ 0.8725 2 3 cbr 210 ------- 2 2.0 3.0 206 206
- 0.8725 2 3 cbr 210 ------- 2 2.0 3.0 206 206
r 0.87584 2 3 cbr 210 ------- 2 2.0 3.0 204 204
+ 0.87625 2 3 cbr 210 ------- 2 2.0 3.0 207 207
- 0.87625 2 3 cbr 210 ------- 2 2.0 3.0 207 207
r 0.87959 2 3 cbr 210 ------- 2 2.0 3.0 205 205
+ 0.88 2 3 cbr 210 ------- 2 2.0 3.0 208 208
- 0.88 2 3 cbr 210 ------- 2 2.0 3.0 208 208
r 0.88334 2 3 cbr 210 ------- 2 2.0 3.0 206 206
+ 0.88375 2 3 cbr 210 ------- 2 2.0 3.0 209 209
- 0.88375 2 3 cbr 210 ------- 2 2.0 3.0 209 209
r 0.88709 2 3 cbr 210 ------- 2 2.0 3.0 207 207
+ 0.8875 2 3 cbr 210 ------- 2 2.0 3.0 210 210
- 0.8875 2 3 cbr 210 ------- 2 2.0 3.0 210 210
r 0.89084 2 3 cbr 210 ------- 2 2.0 3.0 208 208
+ 0.89125 2 3 cbr 210 ------- 2 2.0 3.0 211 211
- 0.89125 2 3 cbr 210 ------- 2 2.0 3.0 211 211
r 0.89459 2 3 cbr 210 ------- 2 2.0 3.0 209 209
+ 0.895 2 3 cbr 210 ------- 2 2.0 3.0 212 212
- 0.895 2 3 cbr 210 ------- 2 2.0 3.0 212 212
r 0.89834 2 3 cbr 210 ------- 2 2.0 3.0 210 210
+ 0.89875 2 3 cbr 210 ------- 2 2.0 3.0 213 213
- 0.89875 2 3 cbr 210 ------- 2 2.0 3.0 213 213
r 0.90209 2 3 cbr 210 ------- 2 2.0 3.0 211 211
+ 0.9025 2 3 cbr 210 ------- 2 2.0 3.0 214 214
- 0.9025 2 3 cbr 210 ------- 2 2.0 3.0 214 214
r 0.90584 2 3 cbr 210 ------- 2 2.0 3.0 212 212
+ 0.90625 2 3 cbr 210 ------- 2 2.0 3.0 215 215
- 0.90625 2 3 cbr 210 ------- 2 2.0 3.0 215 215
r 0.90959 2 3 cbr 210 ------- 2 2.0 3.0 213 213