s 0.008843915 _0_ RTR  --- 0 message 32 [0 0 0 0] ------- [0:255 -1:255 32 0] 
r 0.010023933 _6_ RTR  --- 0 message 32 [0 ffffffff 0 800] ------- [0:255 -1:255 32 0] 
r 0.010023933 _5_ RTR  --- 0 message 32 [0 ffffffff 0 800] ------- [0:255 -1:255 32 0] 
r 0.010023933 _4_ RTR  --- 0 message 32 [0 ffffffff 0 800] ------- [0:255 -1:255 32 0] 
r 0.010023933 _3_ RTR  --- 0 message 32 [0 ffffffff 0 800] ------- [0:255 -1:255 32 0] 
s 0.036772557 _2_ RTR  --- 1 message 32 [0 0 0 0] ------- [2:255 -1:255 32 0] 
s 0.177383425 _3_ RTR  --- 2 message 32 [0 0 0 0] ------- [3:255 -1:255 32 0] 
r 0.178363425 _4_ RTR  --- 2 message 32 [0 ffffffff 3 800] ------- [3:255 -1:255 32 0] 
r 0.178363425 _5_ RTR  --- 2 message 32 [0 ffffffff 3 800] ------- [3:255 -1:255 32 0] 
r 0.178363425 _6_ RTR  --- 2 message 32 [0 ffffffff 3 800] ------- [3:255 -1:255 32 0] 
r 0.178363443 _0_ RTR  --- 2 message 32 [0 ffffffff 3 800] ------- [3:255 -1:255 32 0] 
s 0.626864932 _6_ RTR  --- 3 message 32 [0 0 0 0] ------- [6:255 -1:255 32 0] 
r 0.627884932 _5_ RTR  --- 3 message 32 [0 ffffffff 6 800] ------- [6:255 -1:255 32 0] 
r 0.627884932 _4_ RTR  --- 3 message 32 [0 ffffffff 6 800] ------- [6:255 -1:255 32 0] 
r 0.627884932 _3_ RTR  --- 3 message 32 [0 ffffffff 6 800] ------- [6:255 -1:255 32 0] 
r 0.627884950 _0_ RTR  --- 3 message 32 [0 ffffffff 6 800] ------- [6:255 -1:255 32 0] 
s 0.886433621 _4_ RTR  --- 4 message 32 [0 0 0 0] ------- [4:255 -1:255 32 0] 
r 0.887693621 _3_ RTR  --- 4 message 32 [0 ffffffff 4 800] ------- [4:255 -1:255 32 0] 
r 0.887693621 _5_ RTR  --- 4 message 32 [0 ffffffff 4 800] ------- [4:255 -1:255 32 0] 
r 0.887693621 _6_ RTR  --- 4 message 32 [0 ffffffff 4 800] ------- [4:255 -1:255 32 0] 
r 0.887693639 _0_ RTR  --- 4 message 32 [0 ffffffff 4 800] ------- [4:255 -1:255 32 0] 
s 1.000000000 _0_ AGT  --- 5 cbr 512 [0 0 0 0] ------- [0:0 1:0 32 0] [0] 0 0
r 1.000000000 _0_ RTR  --- 5 cbr 512 [0 0 0 0] ------- [0:0 1:0 32 0] [0] 0 0
s 1.100000000 _0_ AGT  --- 6 cbr 512 [0 0 0 0] ------- [0:0 1:0 32 0] [1] 0 0
r 1.100000000 _0_ RTR  --- 6 cbr 512 [0 0 0 0] ------- [0:0 1:0 32 0] [1] 0 0
s 1.120382105 _1_ RTR  --- 7 message 32 [0 0 0 0] ------- [1:255 -1:255 32 0] 
s 1.200000000 _0_ AGT  --- 8 cbr 512 [0 0 0 0] ------- [0:0 1:0 32 0] [2] 0 0
r 1.200000000 _0_ RTR  --- 8 cbr 512 [0 0 0 0] ------- [0:0 1:0 32 0] [2] 0 0
s 1.300000000 _0_ AGT  --- 9 cbr 512 [0 0 0 0] ------- [0:0 1:0 32 0] [3] 0 0
r 1.300000000 _0_ RTR  --- 9 cbr 512 [0 0 0 0] ------- [0:0 1:0 32 0] [3] 0 0
s 1.400000000 _0_ AGT  --- 10 cbr 512 [0 0 0 0] ------- [0:0 1:0 32 0] [4] 0 0
r 1.400000000 _0_ RTR  --- 10 cbr 512 [0 0 0 0] ------- [0:0 1:0 32 0] [4] 0 0
s 1.500000000 _0_ AGT  --- 11 cbr 512 [0 0 0 0] ------- [0:0 1:0 32 0] [5] 0 0
r 1.500000000 _0_ RTR  --- 11 cbr 512 [0 0 0 0] ------- [0:0 1:0 32 0] [5] 0 0
D 1.500000000 _0_ RTR  IFQ 5 cbr 532 [0 0 0 0] ------- [0:0 1:0 32 0] [0] 0 0
s 1.600000000 _0_ AGT  --- 13 cbr 512 [0 0 0 0] ------- [0:0 1:0 32 0] [6] 0 0
r 1.600000000 _0_ RTR  --- 13 cbr 512 [0 0 0 0] ------- [0:0 1:0 32 0] [6] 0 0
D 1.600000000 _0_ RTR  IFQ 6 cbr 532 [0 0 0 0] ------- [0:0 1:0 32 0] [1] 0 0
s 1.606821973 _5_ RTR  --- 12 message 32 [0 0 0 0] ------- [5:255 -1:255 32 0] 
r 1.608001973 _4_ RTR  --- 12 message 32 [0 ffffffff 5 800] ------- [5:255 -1:255 32 0] 
r 1.608001973 _3_ RTR  --- 12 message 32 [0 ffffffff 5 800] ------- [5:255 -1:255 32 0] 
r 1.608001973 _6_ RTR  --- 12 message 32 [0 ffffffff 5 800] ------- [5:255 -1:255 32 0] 
r 1.608001990 _0_ RTR  --- 12 message 32 [0 ffffffff 5 800] ------- [5:255 -1:255 32 0] 
s 1.700000000 _0_ AGT  --- 14 cbr 512 [0 0 0 0] ------- [0:0 1:0 32 0] [7] 0 0
r 1.700000000 _0_ RTR  --- 14 cbr 512 [0 0 0 0] ------- [0:0 1:0 32 0] [7] 0 0
D 1.700000000 _0_ RTR  IFQ 8 cbr 532 [0 0 0 0] ------- [0:0 1:0 32 0] [2] 0 0
s 1.800000000 _0_ AGT  --- 15 cbr 512 [0 0 0 0] ------- [0:0 1:0 32 0] [8] 0 0
r 1.800000000 _0_ RTR  --- 15 cbr 512 [0 0 0 0] ------- [0:0 1:0 32 0] [8] 0 0
D 1.800000000 _0_ RTR  IFQ 9 cbr 532 [0 0 0 0] ------- [0:0 1:0 32 0] [3] 0 0
s 1.900000000 _0_ AGT  --- 16 cbr 512 [0 0 0 0] ------- [0:0 1:0 32 0] [9] 0 0
r 1.900000000 _0_ RTR  --- 16 cbr 512 [0 0 0 0] ------- [0:0 1:0 32 0] [9] 0 0
D 1.900000000 _0_ RTR  IFQ 10 cbr 532 [0 0 0 0] ------- [0:0 1:0 32 0] [4] 0 0
s 2.000000000 _0_ AGT  --- 17 cbr 512 [0 0 0 0] ------- [0:0 1:0 32 0] [10] 0 0
r 2.000000000 _0_ RTR  --- 17 cbr 512 [0 0 0 0] ------- [0:0 1:0 32 0] [10] 0 0
D 2.000000000 _0_ RTR  IFQ 11 cbr 532 [0 0 0 0] ------- [0:0 1:0 32 0] [5] 0 0
s 2.100000000 _0_ AGT  --- 18 cbr 512 [0 0 0 0] ------- [0:0 1:0 32 0] [11] 0 0
r 2.100000000 _0_ RTR  --- 18 cbr 512 [0 0 0 0] ------- [0:0 1:0 32 0] [11] 0 0
D 2.100000000 _0_ RTR  IFQ 13 cbr 532 [0 0 0 0] ------- [0:0 1:0 32 0] [6] 0 0
s 2.200000000 _0_ AGT  --- 19 cbr 512 [0 0 0 0] ------- [0:0 1:0 32 0] [12] 0 0
r 2.200000000 _0_ RTR  --- 19 cbr 512 [0 0 0 0] ------- [0:0 1:0 32 0] [12] 0 0
D 2.200000000 _0_ RTR  IFQ 14 cbr 532 [0 0 0 0] ------- [0:0 1:0 32 0] [7] 0 0
s 2.300000000 _0_ AGT  --- 20 cbr 512 [0 0 0 0] ------- [0:0 1:0 32 0] [13] 0 0
r 2.300000000 _0_ RTR  --- 20 cbr 512 [0 0 0 0] ------- [0:0 1:0 32 0] [13] 0 0
D 2.300000000 _0_ RTR  IFQ 15 cbr 532 [0 0 0 0] ------- [0:0 1:0 32 0] [8] 0 0
s 2.400000000 _0_ AGT  --- 21 cbr 512 [0 0 0 0] ------- [0:0 1:0 32 0] [14] 0 0
r 2.400000000 _0_ RTR  --- 21 cbr 512 [0 0 0 0] ------- [0:0 1:0 32 0] [14] 0 0
D 2.400000000 _0_ RTR  IFQ 16 cbr 532 [0 0 0 0] ------- [0:0 1:0 32 0] [9] 0 0
s 2.500000000 _0_ AGT  --- 22 cbr 512 [0 0 0 0] ------- [0:0 1:0 32 0] [15] 0 0
r 2.500000000 _0_ RTR  --- 22 cbr 512 [0 0 0 0] ------- [0:0 1:0 32 0] [15] 0 0
D 2.500000000 _0_ RTR  IFQ 17 cbr 532 [0 0 0 0] ------- [0:0 1:0 32 0] [10] 0 0
s 2.600000000 _0_ AGT  --- 23 cbr 512 [0 0 0 0] ------- [0:0 1:0 32 0] [16] 0 0
r 2.600000000 _0_ RTR  --- 23 cbr 512 [0 0 0 0] ------- [0:0 1:0 32 0] [16] 0 0
D 2.600000000 _0_ RTR  IFQ 18 cbr 532 [0 0 0 0] ------- [0:0 1:0 32 0] [11] 0 0
s 2.700000000 _0_ AGT  --- 24 cbr 512 [0 0 0 0] ------- [0:0 1:0 32 0] [17] 0 0
r 2.700000000 _0_ RTR  --- 24 cbr 512 [0 0 0 0] ------- [0:0 1:0 32 0] [17] 0 0
D 2.700000000 _0_ RTR  IFQ 19 cbr 532 [0 0 0 0] ------- [0:0 1:0 32 0] [12] 0 0
s 2.800000000 _0_ AGT  --- 25 cbr 512 [0 0 0 0] ------- [0:0 1:0 32 0] [18] 0 0
r 2.800000000 _0_ RTR  --- 25 cbr 512 [0 0 0 0] ------- [0:0 1:0 32 0] [18] 0 0
D 2.800000000 _0_ RTR  IFQ 20 cbr 532 [0 0 0 0] ------- [0:0 1:0 32 0] [13] 0 0
s 2.900000000 _0_ AGT  --- 26 cbr 512 [0 0 0 0] ------- [0:0 1:0 32 0] [19] 0 0
r 2.900000000 _0_ RTR  --- 26 cbr 512 [0 0 0 0] ------- [0:0 1:0 32 0] [19] 0 0
D 2.900000000 _0_ RTR  IFQ 21 cbr 532 [0 0 0 0] ------- [0:0 1:0 32 0] [14] 0 0
s 3.000000000 _0_ AGT  --- 27 cbr 512 [0 0 0 0] ------- [0:0 1:0 32 0] [20] 0 0
r 3.000000000 _0_ RTR  --- 27 cbr 512 [0 0 0 0] ------- [0:0 1:0 32 0] [20] 0 0
D 3.000000000 _0_ RTR  IFQ 22 cbr 532 [0 0 0 0] ------- [0:0 1:0 32 0] [15] 0 0
s 3.100000000 _0_ AGT  --- 28 cbr 512 [0 0 0 0] ------- [0:0 1:0 32 0] [21] 0 0
r 3.100000000 _0_ RTR  --- 28 cbr 512 [0 0 0 0] ------- [0:0 1:0 32 0] [21] 0 0
D 3.100000000 _0_ RTR  IFQ 23 cbr 532 [0 0 0 0] ------- [0:0 1:0 32 0] [16] 0 0
s 3.200000000 _0_ AGT  --- 29 cbr 512 [0 0 0 0] ------- [0:0 1:0 32 0] [22] 0 0
r 3.200000000 _0_ RTR  --- 29 cbr 512 [0 0 0 0] ------- [0:0 1:0 32 0] [22] 0 0
D 3.200000000 _0_ RTR  IFQ 24 cbr 532 [0 0 0 0] ------- [0:0 1:0 32 0] [17] 0 0
s 3.300000000 _0_ AGT  --- 30 cbr 512 [0 0 0 0] ------- [0:0 1:0 32 0] [23] 0 0
r 3.300000000 _0_ RTR  --- 30 cbr 512 [0 0 0 0] ------- [0:0 1:0 32 0] [23] 0 0
D 3.300000000 _0_ RTR  IFQ 25 cbr 532 [0 0 0 0] ------- [0:0 1:0 32 0] [18] 0 0
s 3.400000000 _0_ AGT  --- 31 cbr 512 [0 0 0 0] ------- [0:0 1:0 32 0] [24] 0 0
r 3.400000000 _0_ RTR  --- 31 cbr 512 [0 0 0 0] ------- [0:0 1:0 32 0] [24] 0 0
D 3.400000000 _0_ RTR  IFQ 26 cbr 532 [0 0 0 0] ------- [0:0 1:0 32 0] [19] 0 0
s 3.500000000 _0_ AGT  --- 32 cbr 512 [0 0 0 0] ------- [0:0 1:0 32 0] [25] 0 0
r 3.500000000 _0_ RTR  --- 32 cbr 512 [0 0 0 0] ------- [0:0 1:0 32 0] [25] 0 0
D 3.500000000 _0_ RTR  IFQ 27 cbr 532 [0 0 0 0] ------- [0:0 1:0 32 0] [20] 0 0
s 3.600000000 _0_ AGT  --- 33 cbr 512 [0 0 0 0] ------- [0:0 1:0 32 0] [26] 0 0
r 3.600000000 _0_ RTR  --- 33 cbr 512 [0 0 0 0] ------- [0:0 1:0 32 0] [26] 0 0
D 3.600000000 _0_ RTR  IFQ 28 cbr 532 [0 0 0 0] ------- [0:0 1:0 32 0] [21] 0 0
s 3.700000000 _0_ AGT  --- 34 cbr 512 [0 0 0 0] ------- [0:0 1:0 32 0] [27] 0 0
r 3.700000000 _0_ RTR  --- 34 cbr 512 [0 0 0 0] ------- [0:0 1:0 32 0] [27] 0 0
D 3.700000000 _0_ RTR  IFQ 29 cbr 532 [0 0 0 0] ------- [0:0 1:0 32 0] [22] 0 0
s 3.800000000 _0_ AGT  --- 35 cbr 512 [0 0 0 0] ------- [0:0 1:0 32 0] [28] 0 0
r 3.800000000 _0_ RTR  --- 35 cbr 512 [0 0 0 0] ------- [0:0 1:0 32 0] [28] 0 0
D 3.800000000 _0_ RTR  IFQ 30 cbr 532 [0 0 0 0] ------- [0:0 1:0 32 0] [23] 0 0
s 3.900000000 _0_ AGT  --- 36 cbr 512 [0 0 0 0] ------- [0:0 1:0 32 0] [29] 0 0
r 3.900000000 _0_ RTR  --- 36 cbr 512 [0 0 0 0] ------- [0:0 1:0 32 0] [29] 0 0
D 3.900000000 _0_ RTR  IFQ 31 cbr 532 [0 0 0 0] ------- [0:0 1:0 32 0] [24] 0 0
s 4.000000000 _0_ AGT  --- 37 cbr 512 [0 0 0 0] ------- [0:0 1:0 32 0] [30] 0 0
r 4.000000000 _0_ RTR  --- 37 cbr 512 [0 0 0 0] ------- [0:0 1:0 32 0] [30] 0 0
D 4.000000000 _0_ RTR  IFQ 32 cbr 532 [0 0 0 0] ------- [0:0 1:0 32 0] [25] 0 0
s 4.100000000 _0_ AGT  --- 38 cbr 512 [0 0 0 0] ------- [0:0 1:0 32 0] [31] 0 0
r 4.100000000 _0_ RTR  --- 38 cbr 512 [0 0 0 0] ------- [0:0 1:0 32 0] [31] 0 0
D 4.100000000 _0_ RTR  IFQ 33 cbr 532 [0 0 0 0] ------- [0:0 1:0 32 0] [26] 0 0
s 4.200000000 _0_ AGT  --- 39 cbr 512 [0 0 0 0] ------- [0:0 1:0 32 0] [32] 0 0
r 4.200000000 _0_ RTR  --- 39 cbr 512 [0 0 0 0] ------- [0:0 1:0 32 0] [32] 0 0
D 4.200000000 _0_ RTR  IFQ 34 cbr 532 [0 0 0 0] ------- [0:0 1:0 32 0] [27] 0 0
s 4.300000000 _0_ AGT  --- 40 cbr 512 [0 0 0 0] ------- [0:0 1:0 32 0] [33] 0 0
r 4.300000000 _0_ RTR  --- 40 cbr 512 [0 0 0 0] ------- [0:0 1:0 32 0] [33] 0 0
D 4.300000000 _0_ RTR  IFQ 35 cbr 532 [0 0 0 0] ------- [0:0 1:0 32 0] [28] 0 0
s 4.400000000 _0_ AGT  --- 41 cbr 512 [0 0 0 0] ------- [0:0 1:0 32 0] [34] 0 0
r 4.400000000 _0_ RTR  --- 41 cbr 512 [0 0 0 0] ------- [0:0 1:0 32 0] [34] 0 0
D 4.400000000 _0_ RTR  IFQ 36 cbr 532 [0 0 0 0] ------- [0:0 1:0 32 0] [29] 0 0
s 4.500000000 _0_ AGT  --- 42 cbr 512 [0 0 0 0] ------- [0:0 1:0 32 0] [35] 0 0
r 4.500000000 _0_ RTR  --- 42 cbr 512 [0 0 0 0] ------- [0:0 1:0 32 0] [35] 0 0
D 4.500000000 _0_ RTR  IFQ 37 cbr 532 [0 0 0 0] ------- [0:0 1:0 32 0] [30] 0 0
s 4.600000000 _0_ AGT  --- 43 cbr 512 [0 0 0 0] ------- [0:0 1:0 32 0] [36] 0 0
r 4.600000000 _0_ RTR  --- 43 cbr 512 [0 0 0 0] ------- [0:0 1:0 32 0] [36] 0 0
D 4.600000000 _0_ RTR  IFQ 38 cbr 532 [0 0 0 0] ------- [0:0 1:0 32 0] [31] 0 0
s 4.700000000 _0_ AGT  --- 44 cbr 512 [0 0 0 0] ------- [0:0 1:0 32 0] [37] 0 0
r 4.700000000 _0_ RTR  --- 44 cbr 512 [0 0 0 0] ------- [0:0 1:0 32 0] [37] 0 0
D 4.700000000 _0_ RTR  IFQ 39 cbr 532 [0 0 0 0] ------- [0:0 1:0 32 0] [32] 0 0
s 4.800000000 _0_ AGT  --- 45 cbr 512 [0 0 0 0] ------- [0:0 1:0 32 0] [38] 0 0
r 4.800000000 _0_ RTR  --- 45 cbr 512 [0 0 0 0] ------- [0:0 1:0 32 0] [38] 0 0
D 4.800000000 _0_ RTR  IFQ 40 cbr 532 [0 0 0 0] ------- [0:0 1:0 32 0] [33] 0 0
s 4.900000000 _0_ AGT  --- 46 cbr 512 [0 0 0 0] ------- [0:0 1:0 32 0] [39] 0 0
r 4.900000000 _0_ RTR  --- 46 cbr 512 [0 0 0 0] ------- [0:0 1:0 32 0] [39] 0 0
D 4.900000000 _0_ RTR  IFQ 41 cbr 532 [0 0 0 0] ------- [0:0 1:0 32 0] [34] 0 0
s 5.000000000 _0_ AGT  --- 47 cbr 512 [0 0 0 0] ------- [0:0 1:0 32 0] [40] 0 0
r 5.000000000 _0_ RTR  --- 47 cbr 512 [0 0 0 0] ------- [0:0 1:0 32 0] [40] 0 0
D 5.000000000 _0_ RTR  IFQ 42 cbr 532 [0 0 0 0] ------- [0:0 1:0 32 0] [35] 0 0
s 5.100000000 _0_ AGT  --- 48 cbr 512 [0 0 0 0] ------- [0:0 1:0 32 0] [41] 0 0
r 5.100000000 _0_ RTR  --- 48 cbr 512 [0 0 0 0] ------- [0:0 1:0 32 0] [41] 0 0
D 5.100000000 _0_ RTR  IFQ 43 cbr 532 [0 0 0 0] ------- [0:0 1:0 32 0] [36] 0 0
s 5.200000000 _0_ AGT  --- 49 cbr 512 [0 0 0 0] ------- [0:0 1:0 32 0] [42] 0 0
r 5.200000000 _0_ RTR  --- 49 cbr 512 [0 0 0 0] ------- [0:0 1:0 32 0] [42] 0 0
D 5.200000000 _0_ RTR  IFQ 44 cbr 532 [0 0 0 0] ------- [0:0 1:0 32 0] [37] 0 0
s 5.300000000 _0_ AGT  --- 50 cbr 512 [0 0 0 0] ------- [0:0 1:0 32 0] [43] 0 0
r 5.300000000 _0_ RTR  --- 50 cbr 512 [0 0 0 0] ------- [0:0 1:0 32 0] [43] 0 0
D 5.300000000 _0_ RTR  IFQ 45 cbr 532 [0 0 0 0] ------- [0:0 1:0 32 0] [38] 0 0
s 5.400000000 _0_ AGT  --- 51 cbr 512 [0 0 0 0] ------- [0:0 1:0 32 0] [44] 0 0
r 5.400000000 _0_ RTR  --- 51 cbr 512 [0 0 0 0] ------- [0:0 1:0 32 0] [44] 0 0
D 5.400000000 _0_ RTR  IFQ 46 cbr 532 [0 0 0 0] ------- [0:0 1:0 32 0] [39] 0 0
s 5.500000000 _0_ AGT  --- 52 cbr 512 [0 0 0 0] ------- [0:0 1:0 32 0] [45] 0 0
r 5.500000000 _0_ RTR  --- 52 cbr 512 [0 0 0 0] ------- [0:0 1:0 32 0] [45] 0 0
D 5.500000000 _0_ RTR  IFQ 47 cbr 532 [0 0 0 0] ------- [0:0 1:0 32 0] [40] 0 0
s 5.600000000 _0_ AGT  --- 53 cbr 512 [0 0 0 0] ------- [0:0 1:0 32 0] [46] 0 0
r 5.600000000 _0_ RTR  --- 53 cbr 512 [0 0 0 0] ------- [0:0 1:0 32 0] [46] 0 0
D 5.600000000 _0_ RTR  IFQ 48 cbr 532 [0 0 0 0] ------- [0:0 1:0 32 0] [41] 0 0
s 5.700000000 _0_ AGT  --- 54 cbr 512 [0 0 0 0] ------- [0:0 1:0 32 0] [47] 0 0
r 5.700000000 _0_ RTR  --- 54 cbr 512 [0 0 0 0] ------- [0:0 1:0 32 0] [47] 0 0
D 5.700000000 _0_ RTR  IFQ 49 cbr 532 [0 0 0 0] ------- [0:0 1:0 32 0] [42] 0 0
s 5.800000000 _0_ AGT  --- 55 cbr 512 [0 0 0 0] ------- [0:0 1:0 32 0] [48] 0 0
r 5.800000000 _0_ RTR  --- 55 cbr 512 [0 0 0 0] ------- [0:0 1:0 32 0] [48] 0 0
D 5.800000000 _0_ RTR  IFQ 50 cbr 532 [0 0 0 0] ------- [0:0 1:0 32 0] [43] 0 0
s 5.900000000 _0_ AGT  --- 56 cbr 512 [0 0 0 0] ------- [0:0 1:0 32 0] [49] 0 0
r 5.900000000 _0_ RTR  --- 56 cbr 512 [0 0 0 0] ------- [0:0 1:0 32 0] [49] 0 0
D 5.900000000 _0_ RTR  IFQ 51 cbr 532 [0 0 0 0] ------- [0:0 1:0 32 0] [44] 0 0
s 6.000000000 _0_ AGT  --- 57 cbr 512 [0 0 0 0] ------- [0:0 1:0 32 0] [50] 0 0
r 6.000000000 _0_ RTR  --- 57 cbr 512 [0 0 0 0] ------- [0:0 1:0 32 0] [50] 0 0
D 6.000000000 _0_ RTR  IFQ 52 cbr 532 [0 0 0 0] ------- [0:0 1:0 32 0] [45] 0 0
s 6.100000000 _0_ AGT  --- 58 cbr 512 [0 0 0 0] ------- [0:0 1:0 32 0] [51] 0 0
r 6.100000000 _0_ RTR  --- 58 cbr 512 [0 0 0 0] ------- [0:0 1:0 32 0] [51] 0 0
D 6.100000000 _0_ RTR  IFQ 53 cbr 532 [0 0 0 0] ------- [0:0 1:0 32 0] [46] 0 0
s 6.200000000 _0_ AGT  --- 59 cbr 512 [0 0 0 0] ------- [0:0 1:0 32 0] [52] 0 0
r 6.200000000 _0_ RTR  --- 59 cbr 512 [0 0 0 0] ------- [0:0 1:0 32 0] [52] 0 0
D 6.200000000 _0_ RTR  IFQ 54 cbr 532 [0 0 0 0] ------- [0:0 1:0 32 0] [47] 0 0
s 6.300000000 _0_ AGT  --- 60 cbr 512 [0 0 0 0] ------- [0:0 1:0 32 0] [53] 0 0
r 6.300000000 _0_ RTR  --- 60 cbr 512 [0 0 0 0] ------- [0:0 1:0 32 0] [53] 0 0
D 6.300000000 _0_ RTR  IFQ 55 cbr 532 [0 0 0 0] ------- [0:0 1:0 32 0] [48] 0 0
s 6.400000000 _0_ AGT  --- 61 cbr 512 [0 0 0 0] ------- [0:0 1:0 32 0] [54] 0 0
r 6.400000000 _0_ RTR  --- 61 cbr 512 [0 0 0 0] ------- [0:0 1:0 32 0] [54] 0 0
D 6.400000000 _0_ RTR  IFQ 56 cbr 532 [0 0 0 0] ------- [0:0 1:0 32 0] [49] 0 0
s 6.500000000 _0_ AGT  --- 62 cbr 512 [0 0 0 0] ------- [0:0 1:0 32 0] [55] 0 0
r 6.500000000 _0_ RTR  --- 62 cbr 512 [0 0 0 0] ------- [0:0 1:0 32 0] [55] 0 0
D 6.500000000 _0_ RTR  IFQ 57 cbr 532 [0 0 0 0] ------- [0:0 1:0 32 0] [50] 0 0
s 6.600000000 _0_ AGT  --- 63 cbr 512 [0 0 0 0] ------- [0:0 1:0 32 0] [56] 0 0
r 6.600000000 _0_ RTR  --- 63 cbr 512 [0 0 0 0] ------- [0:0 1:0 32 0] [56] 0 0
D 6.600000000 _0_ RTR  IFQ 58 cbr 532 [0 0 0 0] ------- [0:0 1:0 32 0] [51] 0 0
s 6.700000000 _0_ AGT  --- 64 cbr 512 [0 0 0 0] ------- [0:0 1:0 32 0] [57] 0 0
r 6.700000000 _0_ RTR  --- 64 cbr 512 [0 0 0 0] ------- [0:0 1:0 32 0] [57] 0 0
D 6.700000000 _0_ RTR  IFQ 59 cbr 532 [0 0 0 0] ------- [0:0 1:0 32 0] [52] 0 0
s 6.800000000 _0_ AGT  --- 65 cbr 512 [0 0 0 0] ------- [0:0 1:0 32 0] [58] 0 0
r 6.800000000 _0_ RTR  --- 65 cbr 512 [0 0 0 0] ------- [0:0 1:0 32 0] [58] 0 0
D 6.800000000 _0_ RTR  IFQ 60 cbr 532 [0 0 0 0] ------- [0:0 1:0 32 0] [53] 0 0
s 6.900000000 _0_ AGT  --- 66 cbr 512 [0 0 0 0] ------- [0:0 1:0 32 0] [59] 0 0
r 6.900000000 _0_ RTR  --- 66 cbr 512 [0 0 0 0] ------- [0:0 1:0 32 0] [59] 0 0
D 6.900000000 _0_ RTR  IFQ 61 cbr 532 [0 0 0 0] ------- [0:0 1:0 32 0] [54] 0 0
s 7.000000000 _0_ AGT  --- 67 cbr 512 [0 0 0 0] ------- [0:0 1:0 32 0] [60] 0 0
r 7.000000000 _0_ RTR  --- 67 cbr 512 [0 0 0 0] ------- [0:0 1:0 32 0] [60] 0 0
D 7.000000000 _0_ RTR  IFQ 62 cbr 532 [0 0 0 0] ------- [0:0 1:0 32 0] [55] 0 0
s 7.100000000 _0_ AGT  --- 68 cbr 512 [0 0 0 0] ------- [0:0 1:0 32 0] [61] 0 0
r 7.100000000 _0_ RTR  --- 68 cbr 512 [0 0 0 0] ------- [0:0 1:0 32 0] [61] 0 0
D 7.100000000 _0_ RTR  IFQ 63 cbr 532 [0 0 0 0] ------- [0:0 1:0 32 0] [56] 0 0
s 7.200000000 _0_ AGT  --- 69 cbr 512 [0 0 0 0] ------- [0:0 1:0 32 0] [62] 0 0
r 7.200000000 _0_ RTR  --- 69 cbr 512 [0 0 0 0] ------- [0:0 1:0 32 0] [62] 0 0
D 7.200000000 _0_ RTR  IFQ 64 cbr 532 [0 0 0 0] ------- [0:0 1:0 32 0] [57] 0 0
s 7.300000000 _0_ AGT  --- 70 cbr 512 [0 0 0 0] ------- [0:0 1:0 32 0] [63] 0 0
r 7.300000000 _0_ RTR  --- 70 cbr 512 [0 0 0 0] ------- [0:0 1:0 32 0] [63] 0 0
D 7.300000000 _0_ RTR  IFQ 65 cbr 532 [0 0 0 0] ------- [0:0 1:0 32 0] [58] 0 0
s 7.400000000 _0_ AGT  --- 71 cbr 512 [0 0 0 0] ------- [0:0 1:0 32 0] [64] 0 0
r 7.400000000 _0_ RTR  --- 71 cbr 512 [0 0 0 0] ------- [0:0 1:0 32 0] [64] 0 0
D 7.400000000 _0_ RTR  IFQ 66 cbr 532 [0 0 0 0] ------- [0:0 1:0 32 0] [59] 0 0
s 7.500000000 _0_ AGT  --- 72 cbr 512 [0 0 0 0] ------- [0:0 1:0 32 0] [65] 0 0
r 7.500000000 _0_ RTR  --- 72 cbr 512 [0 0 0 0] ------- [0:0 1:0 32 0] [65] 0 0
D 7.500000000 _0_ RTR  IFQ 67 cbr 532 [0 0 0 0] ------- [0:0 1:0 32 0] [60] 0 0
s 7.600000000 _0_ AGT  --- 73 cbr 512 [0 0 0 0] ------- [0:0 1:0 32 0] [66] 0 0
r 7.600000000 _0_ RTR  --- 73 cbr 512 [0 0 0 0] ------- [0:0 1:0 32 0] [66] 0 0
D 7.600000000 _0_ RTR  IFQ 68 cbr 532 [0 0 0 0] ------- [0:0 1:0 32 0] [61] 0 0
s 7.700000000 _0_ AGT  --- 74 cbr 512 [0 0 0 0] ------- [0:0 1:0 32 0] [67] 0 0
r 7.700000000 _0_ RTR  --- 74 cbr 512 [0 0 0 0] ------- [0:0 1:0 32 0] [67] 0 0
D 7.700000000 _0_ RTR  IFQ 69 cbr 532 [0 0 0 0] ------- [0:0 1:0 32 0] [62] 0 0
s 7.800000000 _0_ AGT  --- 75 cbr 512 [0 0 0 0] ------- [0:0 1:0 32 0] [68] 0 0
r 7.800000000 _0_ RTR  --- 75 cbr 512 [0 0 0 0] ------- [0:0 1:0 32 0] [68] 0 0
D 7.800000000 _0_ RTR  IFQ 70 cbr 532 [0 0 0 0] ------- [0:0 1:0 32 0] [63] 0 0
s 7.900000000 _0_ AGT  --- 76 cbr 512 [0 0 0 0] ------- [0:0 1:0 32 0] [69] 0 0
r 7.900000000 _0_ RTR  --- 76 cbr 512 [0 0 0 0] ------- [0:0 1:0 32 0] [69] 0 0
D 7.900000000 _0_ RTR  IFQ 71 cbr 532 [0 0 0 0] ------- [0:0 1:0 32 0] [64] 0 0
s 8.000000000 _0_ AGT  --- 77 cbr 512 [0 0 0 0] ------- [0:0 1:0 32 0] [70] 0 0
r 8.000000000 _0_ RTR  --- 77 cbr 512 [0 0 0 0] ------- [0:0 1:0 32 0] [70] 0 0
D 8.000000000 _0_ RTR  IFQ 72 cbr 532 [0 0 0 0] ------- [0:0 1:0 32 0] [65] 0 0
s 8.100000000 _0_ AGT  --- 78 cbr 512 [0 0 0 0] ------- [0:0 1:0 32 0] [71] 0 0
r 8.100000000 _0_ RTR  --- 78 cbr 512 [0 0 0 0] ------- [0:0 1:0 32 0] [71] 0 0
D 8.100000000 _0_ RTR  IFQ 73 cbr 532 [0 0 0 0] ------- [0:0 1:0 32 0] [66] 0 0
s 8.200000000 _0_ AGT  --- 79 cbr 512 [0 0 0 0] ------- [0:0 1:0 32 0] [72] 0 0
r 8.200000000 _0_ RTR  --- 79 cbr 512 [0 0 0 0] ------- [0:0 1:0 32 0] [72] 0 0
D 8.200000000 _0_ RTR  IFQ 74 cbr 532 [0 0 0 0] ------- [0:0 1:0 32 0] [67] 0 0
s 8.300000000 _0_ AGT  --- 80 cbr 512 [0 0 0 0] ------- [0:0 1:0 32 0] [73] 0 0
r 8.300000000 _0_ RTR  --- 80 cbr 512 [0 0 0 0] ------- [0:0 1:0 32 0] [73] 0 0
D 8.300000000 _0_ RTR  IFQ 75 cbr 532 [0 0 0 0] ------- [0:0 1:0 32 0] [68] 0 0
s 8.400000000 _0_ AGT  --- 81 cbr 512 [0 0 0 0] ------- [0:0 1:0 32 0] [74] 0 0
r 8.400000000 _0_ RTR  --- 81 cbr 512 [0 0 0 0] ------- [0:0 1:0 32 0] [74] 0 0
D 8.400000000 _0_ RTR  IFQ 76 cbr 532 [0 0 0 0] ------- [0:0 1:0 32 0] [69] 0 0
s 8.500000000 _0_ AGT  --- 82 cbr 512 [0 0 0 0] ------- [0:0 1:0 32 0] [75] 0 0
r 8.500000000 _0_ RTR  --- 82 cbr 512 [0 0 0 0] ------- [0:0 1:0 32 0] [75] 0 0
D 8.500000000 _0_ RTR  IFQ 77 cbr 532 [0 0 0 0] ------- [0:0 1:0 32 0] [70] 0 0
s 8.600000000 _0_ AGT  --- 83 cbr 512 [0 0 0 0] ------- [0:0 1:0 32 0] [76] 0 0
r 8.600000000 _0_ RTR  --- 83 cbr 512 [0 0 0 0] ------- [0:0 1:0 32 0] [76] 0 0
D 8.600000000 _0_ RTR  IFQ 78 cbr 532 [0 0 0 0] ------- [0:0 1:0 32 0] [71] 0 0
s 8.700000000 _0_ AGT  --- 84 cbr 512 [0 0 0 0] ------- [0:0 1:0 32 0] [77] 0 0
r 8.700000000 _0_ RTR  --- 84 cbr 512 [0 0 0 0] ------- [0:0 1:0 32 0] [77] 0 0
D 8.700000000 _0_ RTR  IFQ 79 cbr 532 [0 0 0 0] ------- [0:0 1:0 32 0] [72] 0 0
s 8.800000000 _0_ AGT  --- 85 cbr 512 [0 0 0 0] ------- [0:0 1:0 32 0] [78] 0 0
r 8.800000000 _0_ RTR  --- 85 cbr 512 [0 0 0 0] ------- [0:0 1:0 32 0] [78] 0 0
D 8.800000000 _0_ RTR  IFQ 80 cbr 532 [0 0 0 0] ------- [0:0 1:0 32 0] [73] 0 0
s 8.900000000 _0_ AGT  --- 86 cbr 512 [0 0 0 0] ------- [0:0 1:0 32 0] [79] 0 0
r 8.900000000 _0_ RTR  --- 86 cbr 512 [0 0 0 0] ------- [0:0 1:0 32 0] [79] 0 0
D 8.900000000 _0_ RTR  IFQ 81 cbr 532 [0 0 0 0] ------- [0:0 1:0 32 0] [74] 0 0
s 9.000000000 _0_ AGT  --- 87 cbr 512 [0 0 0 0] ------- [0:0 1:0 32 0] [80] 0 0
r 9.000000000 _0_ RTR  --- 87 cbr 512 [0 0 0 0] ------- [0:0 1:0 32 0] [80] 0 0
D 9.000000000 _0_ RTR  IFQ 82 cbr 532 [0 0 0 0] ------- [0:0 1:0 32 0] [75] 0 0
s 9.100000000 _0_ AGT  --- 88 cbr 512 [0 0 0 0] ------- [0:0 1:0 32 0] [81] 0 0
r 9.100000000 _0_ RTR  --- 88 cbr 512 [0 0 0 0] ------- [0:0 1:0 32 0] [81] 0 0
D 9.100000000 _0_ RTR  IFQ 83 cbr 532 [0 0 0 0] ------- [0:0 1:0 32 0] [76] 0 0
s 9.200000000 _0_ AGT  --- 89 cbr 512 [0 0 0 0] ------- [0:0 1:0 32 0] [82] 0 0
r 9.200000000 _0_ RTR  --- 89 cbr 512 [0 0 0 0] ------- [0:0 1:0 32 0] [82] 0 0
D 9.200000000 _0_ RTR  IFQ 84 cbr 532 [0 0 0 0] ------- [0:0 1:0 32 0] [77] 0 0
s 9.300000000 _0_ AGT  --- 90 cbr 512 [0 0 0 0] ------- [0:0 1:0 32 0] [83] 0 0
r 9.300000000 _0_ RTR  --- 90 cbr 512 [0 0 0 0] ------- [0:0 1:0 32 0] [83] 0 0
D 9.300000000 _0_ RTR  IFQ 85 cbr 532 [0 0 0 0] ------- [0:0 1:0 32 0] [78] 0 0
s 9.400000000 _0_ AGT  --- 91 cbr 512 [0 0 0 0] ------- [0:0 1:0 32 0] [84] 0 0
r 9.400000000 _0_ RTR  --- 91 cbr 512 [0 0 0 0] ------- [0:0 1:0 32 0] [84] 0 0
D 9.400000000 _0_ RTR  IFQ 86 cbr 532 [0 0 0 0] ------- [0:0 1:0 32 0] [79] 0 0
s 9.500000000 _0_ AGT  --- 92 cbr 512 [0 0 0 0] ------- [0:0 1:0 32 0] [85] 0 0
r 9.500000000 _0_ RTR  --- 92 cbr 512 [0 0 0 0] ------- [0:0 1:0 32 0] [85] 0 0
D 9.500000000 _0_ RTR  IFQ 87 cbr 532 [0 0 0 0] ------- [0:0 1:0 32 0] [80] 0 0
s 9.600000000 _0_ AGT  --- 93 cbr 512 [0 0 0 0] ------- [0:0 1:0 32 0] [86] 0 0
r 9.600000000 _0_ RTR  --- 93 cbr 512 [0 0 0 0] ------- [0:0 1:0 32 0] [86] 0 0
D 9.600000000 _0_ RTR  IFQ 88 cbr 532 [0 0 0 0] ------- [0:0 1:0 32 0] [81] 0 0
s 9.700000000 _0_ AGT  --- 94 cbr 512 [0 0 0 0] ------- [0:0 1:0 32 0] [87] 0 0
r 9.700000000 _0_ RTR  --- 94 cbr 512 [0 0 0 0] ------- [0:0 1:0 32 0] [87] 0 0
D 9.700000000 _0_ RTR  IFQ 89 cbr 532 [0 0 0 0] ------- [0:0 1:0 32 0] [82] 0 0
s 9.800000000 _0_ AGT  --- 95 cbr 512 [0 0 0 0] ------- [0:0 1:0 32 0] [88] 0 0
r 9.800000000 _0_ RTR  --- 95 cbr 512 [0 0 0 0] ------- [0:0 1:0 32 0] [88] 0 0
D 9.800000000 _0_ RTR  IFQ 90 cbr 532 [0 0 0 0] ------- [0:0 1:0 32 0] [83] 0 0
s 9.900000000 _0_ AGT  --- 96 cbr 512 [0 0 0 0] ------- [0:0 1:0 32 0] [89] 0 0
r 9.900000000 _0_ RTR  --- 96 cbr 512 [0 0 0 0] ------- [0:0 1:0 32 0] [89] 0 0
D 9.900000000 _0_ RTR  IFQ 91 cbr 532 [0 0 0 0] ------- [0:0 1:0 32 0] [84] 0 0
s 10.000000000 _0_ AGT  --- 97 cbr 512 [0 0 0 0] ------- [0:0 1:0 32 0] [90] 0 0
r 10.000000000 _0_ RTR  --- 97 cbr 512 [0 0 0 0] ------- [0:0 1:0 32 0] [90] 0 0
D 10.000000000 _0_ RTR  IFQ 92 cbr 532 [0 0 0 0] ------- [0:0 1:0 32 0] [85] 0 0
M 10.00000 0 (5.00, 2.00, 0.00), (250.00, 250.00), 3.00
s 10.100000000 _0_ AGT  --- 98 cbr 512 [0 0 0 0] ------- [0:0 1:0 32 0] [91] 0 0
r 10.100000000 _0_ RTR  --- 98 cbr 512 [0 0 0 0] ------- [0:0 1:0 32 0] [91] 0 0
D 10.100000000 _0_ RTR  IFQ 93 cbr 532 [0 0 0 0] ------- [0:0 1:0 32 0] [86] 0 0
s 10.200000000 _0_ AGT  --- 99 cbr 512 [0 0 0 0] ------- [0:0 1:0 32 0] [92] 0 0
r 10.200000000 _0_ RTR  --- 99 cbr 512 [0 0 0 0] ------- [0:0 1:0 32 0] [92] 0 0
D 10.200000000 _0_ RTR  IFQ 94 cbr 532 [0 0 0 0] ------- [0:0 1:0 32 0] [87] 0 0
s 10.300000000 _0_ AGT  --- 100 cbr 512 [0 0 0 0] ------- [0:0 1:0 32 0] [93] 0 0
r 10.300000000 _0_ RTR  --- 100 cbr 512 [0 0 0 0] ------- [0:0 1:0 32 0] [93] 0 0
D 10.300000000 _0_ RTR  IFQ 95 cbr 532 [0 0 0 0] ------- [0:0 1:0 32 0] [88] 0 0
s 10.400000000 _0_ AGT  --- 101 cbr 512 [0 0 0 0] ------- [0:0 1:0 32 0] [94] 0 0
r 10.400000000 _0_ RTR  --- 101 cbr 512 [0 0 0 0] ------- [0:0 1:0 32 0] [94] 0 0
D 10.400000000 _0_ RTR  IFQ 96 cbr 532 [0 0 0 0] ------- [0:0 1:0 32 0] [89] 0 0
s 10.500000000 _0_ AGT  --- 102 cbr 512 [0 0 0 0] ------- [0:0 1:0 32 0] [95] 0 0
r 10.500000000 _0_ RTR  --- 102 cbr 512 [0 0 0 0] ------- [0:0 1:0 32 0] [95] 0 0
D 10.500000000 _0_ RTR  IFQ 97 cbr 532 [0 0 0 0] ------- [0:0 1:0 32 0] [90] 0 0
s 10.600000000 _0_ AGT  --- 103 cbr 512 [0 0 0 0] ------- [0:0 1:0 32 0] [96] 0 0
r 10.600000000 _0_ RTR  --- 103 cbr 512 [0 0 0 0] ------- [0:0 1:0 32 0] [96] 0 0
D 10.600000000 _0_ RTR  IFQ 98 cbr 532 [0 0 0 0] ------- [0:0 1:0 32 0] [91] 0 0
s 10.700000000 _0_ AGT  --- 104 cbr 512 [0 0 0 0] ------- [0:0 1:0 32 0] [97] 0 0
r 10.700000000 _0_ RTR  --- 104 cbr 512 [0 0 0 0] ------- [0:0 1:0 32 0] [97] 0 0
D 10.700000000 _0_ RTR  IFQ 99 cbr 532 [0 0 0 0] ------- [0:0 1:0 32 0] [92] 0 0
s 10.800000000 _0_ AGT  --- 105 cbr 512 [0 0 0 0] ------- [0:0 1:0 32 0] [98] 0 0
r 10.800000000 _0_ RTR  --- 105 cbr 512 [0 0 0 0] ------- [0:0 1:0 32 0] [98] 0 0
D 10.800000000 _0_ RTR  IFQ 100 cbr 532 [0 0 0 0] ------- [0:0 1:0 32 0] [93] 0 0
s 10.900000000 _0_ AGT  --- 106 cbr 512 [0 0 0 0] ------- [0:0 1:0 32 0] [99] 0 0
r 10.900000000 _0_ RTR  --- 106 cbr 512 [0 0 0 0] ------- [0:0 1:0 32 0] [99] 0 0
D 10.900000000 _0_ RTR  IFQ 101 cbr 532 [0 0 0 0] ------- [0:0 1:0 32 0] [94] 0 0
s 11.000000000 _0_ AGT  --- 107 cbr 512 [0 0 0 0] ------- [0:0 1:0 32 0] [100] 0 0
r 11.000000000 _0_ RTR  --- 107 cbr 512 [0 0 0 0] ------- [0:0 1:0 32 0] [100] 0 0
D 11.000000000 _0_ RTR  IFQ 102 cbr 532 [0 0 0 0] ------- [0:0 1:0 32 0] [95] 0 0
s 11.100000000 _0_ AGT  --- 108 cbr 512 [0 0 0 0] ------- [0:0 1:0 32 0] [101] 0 0
r 11.100000000 _0_ RTR  --- 108 cbr 512 [0 0 0 0] ------- [0:0 1:0 32 0] [101] 0 0
D 11.100000000 _0_ RTR  IFQ 103 cbr 532 [0 0 0 0] ------- [0:0 1:0 32 0] [96] 0 0
s 11.200000000 _0_ AGT  --- 109 cbr 512 [0 0 0 0] ------- [0:0 1:0 32 0] [102] 0 0
r 11.200000000 _0_ RTR  --- 109 cbr 512 [0 0 0 0] ------- [0:0 1:0 32 0] [102] 0 0
D 11.200000000 _0_ RTR  IFQ 104 cbr 532 [0 0 0 0] ------- [0:0 1:0 32 0] [97] 0 0
s 11.300000000 _0_ AGT  --- 110 cbr 512 [0 0 0 0] ------- [0:0 1:0 32 0] [103] 0 0
r 11.300000000 _0_ RTR  --- 110 cbr 512 [0 0 0 0] ------- [0:0 1:0 32 0] [103] 0 0
D 11.300000000 _0_ RTR  IFQ 105 cbr 532 [0 0 0 0] ------- [0:0 1:0 32 0] [98] 0 0
s 11.400000000 _0_ AGT  --- 111 cbr 512 [0 0 0 0] ------- [0:0 1:0 32 0] [104] 0 0
r 11.400000000 _0_ RTR  --- 111 cbr 512 [0 0 0 0] ------- [0:0 1:0 32 0] [104] 0 0
D 11.400000000 _0_ RTR  IFQ 106 cbr 532 [0 0 0 0] ------- [0:0 1:0 32 0] [99] 0 0
s 11.500000000 _0_ AGT  --- 112 cbr 512 [0 0 0 0] ------- [0:0 1:0 32 0] [105] 0 0
r 11.500000000 _0_ RTR  --- 112 cbr 512 [0 0 0 0] ------- [0:0 1:0 32 0] [105] 0 0
D 11.500000000 _0_ RTR  IFQ 107 cbr 532 [0 0 0 0] ------- [0:0 1:0 32 0] [100] 0 0
s 11.600000000 _0_ AGT  --- 113 cbr 512 [0 0 0 0] ------- [0:0 1:0 32 0] [106] 0 0
r 11.600000000 _0_ RTR  --- 113 cbr 512 [0 0 0 0] ------- [0:0 1:0 32 0] [106] 0 0
D 11.600000000 _0_ RTR  IFQ 108 cbr 532 [0 0 0 0] ------- [0:0 1:0 32 0] [101] 0 0
s 11.700000000 _0_ AGT  --- 114 cbr 512 [0 0 0 0] ------- [0:0 1:0 32 0] [107] 0 0
r 11.700000000 _0_ RTR  --- 114 cbr 512 [0 0 0 0] ------- [0:0 1:0 32 0] [107] 0 0
D 11.700000000 _0_ RTR  IFQ 109 cbr 532 [0 0 0 0] ------- [0:0 1:0 32 0] [102] 0 0
s 11.800000000 _0_ AGT  --- 115 cbr 512 [0 0 0 0] ------- [0:0 1:0 32 0] [108] 0 0
r 11.800000000 _0_ RTR  --- 115 cbr 512 [0 0 0 0] ------- [0:0 1:0 32 0] [108] 0 0
D 11.800000000 _0_ RTR  IFQ 110 cbr 532 [0 0 0 0] ------- [0:0 1:0 32 0] [103] 0 0
s 11.898009787 _2_ RTR  --- 116 message 32 [0 0 0 0] ------- [2:255 -1:255 32 0] 
s 11.900000000 _0_ AGT  --- 117 cbr 512 [0 0 0 0] ------- [0:0 1:0 32 0] [109] 0 0
r 11.900000000 _0_ RTR  --- 117 cbr 512 [0 0 0 0] ------- [0:0 1:0 32 0] [109] 0 0
D 11.900000000 _0_ RTR  IFQ 111 cbr 532 [0 0 0 0] ------- [0:0 1:0 32 0] [104] 0 0
s 12.000000000 _0_ AGT  --- 118 cbr 512 [0 0 0 0] ------- [0:0 1:0 32 0] [110] 0 0
r 12.000000000 _0_ RTR  --- 118 cbr 512 [0 0 0 0] ------- [0:0 1:0 32 0] [110] 0 0
D 12.000000000 _0_ RTR  IFQ 112 cbr 532 [0 0 0 0] ------- [0:0 1:0 32 0] [105] 0 0
s 12.011144246 _3_ RTR  --- 122 message 32 [0 0 0 0] ------- [3:255 -1:255 32 0] 
r 12.012024246 _4_ RTR  --- 122 message 32 [0 ffffffff 3 800] ------- [3:255 -1:255 32 0] 
r 12.012024246 _5_ RTR  --- 122 message 32 [0 ffffffff 3 800] ------- [3:255 -1:255 32 0] 
r 12.012024246 _6_ RTR  --- 122 message 32 [0 ffffffff 3 800] ------- [3:255 -1:255 32 0] 
r 12.012024283 _0_ RTR  --- 122 message 32 [0 ffffffff 3 800] ------- [3:255 -1:255 32 0] 
s 12.018898368 _6_ RTR  --- 119 message 32 [0 0 0 0] ------- [6:255 -1:255 32 0] 
s 12.018937411 _4_ RTR  --- 121 message 32 [0 0 0 0] ------- [4:255 -1:255 32 0] 
s 12.019486582 _5_ RTR  --- 120 message 32 [0 0 0 0] ------- [5:255 -1:255 32 0] 
r 12.020058368 _5_ RTR  --- 119 message 32 [0 ffffffff 6 800] ------- [6:255 -1:255 32 0] 
r 12.020058368 _4_ RTR  --- 119 message 32 [0 ffffffff 6 800] ------- [6:255 -1:255 32 0] 
r 12.020058368 _3_ RTR  --- 119 message 32 [0 ffffffff 6 800] ------- [6:255 -1:255 32 0] 
r 12.020058406 _0_ RTR  --- 119 message 32 [0 ffffffff 6 800] ------- [6:255 -1:255 32 0] 
r 12.021028368 _3_ RTR  --- 121 message 32 [0 ffffffff 4 800] ------- [4:255 -1:255 32 0] 