r 0.017142 2 3 rtProtoDV 5 ------- 0 2.1 3.1 -1 2
r 0.037222 2 3 rtProtoDV 5 ------- 0 2.1 3.1 -1 9
r 0.037262 2 3 rtProtoDV 5 ------- 0 2.1 3.1 -1 11
r 0.528 2 3 cbr 500 ------- 0 1.0 4.0 0 24
r 0.533 2 3 cbr 500 ------- 0 1.0 4.0 1 25
r 0.538 2 3 cbr 500 ------- 0 1.0 4.0 2 26
r 0.543 2 3 cbr 500 ------- 0 1.0 4.0 3 27
r 0.548 2 3 cbr 500 ------- 0 1.0 4.0 4 28
r 0.553 2 3 cbr 500 ------- 0 1.0 4.0 5 29
r 0.558 2 3 cbr 500 ------- 0 1.0 4.0 6 30
r 0.563 2 3 cbr 500 ------- 0 1.0 4.0 7 31
r 0.568 2 3 cbr 500 ------- 0 1.0 4.0 8 32
r 0.573 2 3 cbr 500 ------- 0 1.0 4.0 9 33
r 0.578 2 3 cbr 500 ------- 0 1.0 4.0 10 34
r 0.583 2 3 cbr 500 ------- 0 1.0 4.0 11 35
r 0.588 2 3 cbr 500 ------- 0 1.0 4.0 12 36
r 0.593 2 3 cbr 500 ------- 0 1.0 4.0 13 37
r 0.598 2 3 cbr 500 ------- 0 1.0 4.0 14 38
r 0.603 2 3 cbr 500 ------- 0 1.0 4.0 15 39
r 0.608 2 3 cbr 500 ------- 0 1.0 4.0 16 40
r 0.613 2 3 cbr 500 ------- 0 1.0 4.0 17 41
r 0.618 2 3 cbr 500 ------- 0 1.0 4.0 18 42
r 0.623 2 3 cbr 500 ------- 0 1.0 4.0 19 43
r 0.628 2 3 cbr 500 ------- 0 1.0 4.0 20 44
r 0.633 2 3 cbr 500 ------- 0 1.0 4.0 21 45
r 0.638 2 3 cbr 500 ------- 0 1.0 4.0 22 46
r 0.643 2 3 cbr 500 ------- 0 1.0 4.0 23 47
r 0.648 2 3 cbr 500 ------- 0 1.0 4.0 24 48
r 0.653 2 3 cbr 500 ------- 0 1.0 4.0 25 49
r 0.658 2 3 cbr 500 ------- 0 1.0 4.0 26 50
r 0.663 2 3 cbr 500 ------- 0 1.0 4.0 27 51
r 0.668 2 3 cbr 500 ------- 0 1.0 4.0 28 52
r 0.673 2 3 cbr 500 ------- 0 1.0 4.0 29 53
r 0.678 2 3 cbr 500 ------- 0 1.0 4.0 30 54
r 0.683 2 3 cbr 500 ------- 0 1.0 4.0 31 55
r 0.688 2 3 cbr 500 ------- 0 1.0 4.0 32 56
r 0.693 2 3 cbr 500 ------- 0 1.0 4.0 33 57
r 0.698 2 3 cbr 500 ------- 0 1.0 4.0 34 58
r 0.703 2 3 cbr 500 ------- 0 1.0 4.0 35 59
r 0.708 2 3 cbr 500 ------- 0 1.0 4.0 36 60
r 0.713 2 3 cbr 500 ------- 0 1.0 4.0 37 61
r 0.718 2 3 cbr 500 ------- 0 1.0 4.0 38 62
r 0.723 2 3 cbr 500 ------- 0 1.0 4.0 39 63
r 0.728 2 3 cbr 500 ------- 0 1.0 4.0 40 64
r 0.733 2 3 cbr 500 ------- 0 1.0 4.0 41 65
r 0.738 2 3 cbr 500 ------- 0 1.0 4.0 42 66
r 0.743 2 3 cbr 500 ------- 0 1.0 4.0 43 67
r 0.748 2 3 cbr 500 ------- 0 1.0 4.0 44 68
r 0.753 2 3 cbr 500 ------- 0 1.0 4.0 45 69
r 0.758 2 3 cbr 500 ------- 0 1.0 4.0 46 70
r 0.763 2 3 cbr 500 ------- 0 1.0 4.0 47 71
r 0.768 2 3 cbr 500 ------- 0 1.0 4.0 48 72
r 0.773 2 3 cbr 500 ------- 0 1.0 4.0 49 73
r 0.778 2 3 cbr 500 ------- 0 1.0 4.0 50 74
r 0.783 2 3 cbr 500 ------- 0 1.0 4.0 51 75
r 0.788 2 3 cbr 500 ------- 0 1.0 4.0 52 76
r 0.793 2 3 cbr 500 ------- 0 1.0 4.0 53 77
r 0.798 2 3 cbr 500 ------- 0 1.0 4.0 54 78
r 0.803 2 3 cbr 500 ------- 0 1.0 4.0 55 79
r 0.808 2 3 cbr 500 ------- 0 1.0 4.0 56 80
r 0.813 2 3 cbr 500 ------- 0 1.0 4.0 57 81
r 0.818 2 3 cbr 500 ------- 0 1.0 4.0 58 82
r 0.823 2 3 cbr 500 ------- 0 1.0 4.0 59 83
r 0.828 2 3 cbr 500 ------- 0 1.0 4.0 60 84
r 0.833 2 3 cbr 500 ------- 0 1.0 4.0 61 85
r 0.838 2 3 cbr 500 ------- 0 1.0 4.0 62 86
r 0.843 2 3 cbr 500 ------- 0 1.0 4.0 63 87
r 0.848 2 3 cbr 500 ------- 0 1.0 4.0 64 88
r 0.853 2 3 cbr 500 ------- 0 1.0 4.0 65 89
r 0.858 2 3 cbr 500 ------- 0 1.0 4.0 66 90
r 0.863 2 3 cbr 500 ------- 0 1.0 4.0 67 91
r 0.868 2 3 cbr 500 ------- 0 1.0 4.0 68 92
r 0.873 2 3 cbr 500 ------- 0 1.0 4.0 69 93
r 0.878 2 3 cbr 500 ------- 0 1.0 4.0 70 94
r 0.883 2 3 cbr 500 ------- 0 1.0 4.0 71 95
r 0.888 2 3 cbr 500 ------- 0 1.0 4.0 72 96
r 0.893 2 3 cbr 500 ------- 0 1.0 4.0 73 97
r 0.898 2 3 cbr 500 ------- 0 1.0 4.0 74 98
r 0.903 2 3 cbr 500 ------- 0 1.0 4.0 75 99
r 0.908 2 3 cbr 500 ------- 0 1.0 4.0 76 100
r 0.913 2 3 cbr 500 ------- 0 1.0 4.0 77 101
r 0.918 2 3 cbr 500 ------- 0 1.0 4.0 78 102
r 0.923 2 3 cbr 500 ------- 0 1.0 4.0 79 103
r 0.928 2 3 cbr 500 ------- 0 1.0 4.0 80 104
r 0.933 2 3 cbr 500 ------- 0 1.0 4.0 81 105
r 0.938 2 3 cbr 500 ------- 0 1.0 4.0 82 106
r 0.943 2 3 cbr 500 ------- 0 1.0 4.0 83 107
r 0.948 2 3 cbr 500 ------- 0 1.0 4.0 84 108
r 0.953 2 3 cbr 500 ------- 0 1.0 4.0 85 109
r 0.958 2 3 cbr 500 ------- 0 1.0 4.0 86 110
r 0.963 2 3 cbr 500 ------- 0 1.0 4.0 87 111
r 0.968 2 3 cbr 500 ------- 0 1.0 4.0 88 112
r 0.973 2 3 cbr 500 ------- 0 1.0 4.0 89 113
r 0.978 2 3 cbr 500 ------- 0 1.0 4.0 90 114
r 0.983 2 3 cbr 500 ------- 0 1.0 4.0 91 115
r 0.988 2 3 cbr 500 ------- 0 1.0 4.0 92 116
r 0.993 2 3 cbr 500 ------- 0 1.0 4.0 93 117
r 0.998 2 3 cbr 500 ------- 0 1.0 4.0 94 118
r 1.003 2 3 cbr 500 ------- 0 1.0 4.0 95 119
r 1.008 2 3 cbr 500 ------- 0 1.0 4.0 96 120
r 1.013 2 3 cbr 500 ------- 0 1.0 4.0 97 121
r 1.018 2 3 cbr 500 ------- 0 1.0 4.0 98 122
r 1.023 2 3 cbr 500 ------- 0 1.0 4.0 99 123
r 1.028 2 3 cbr 500 ------- 0 1.0 4.0 100 124
r 1.033 2 3 cbr 500 ------- 0 1.0 4.0 101 125
r 1.038 2 3 cbr 500 ------- 0 1.0 4.0 102 126
r 1.043 2 3 cbr 500 ------- 0 1.0 4.0 103 127
r 1.048 2 3 cbr 500 ------- 0 1.0 4.0 104 128
r 1.053 2 3 cbr 500 ------- 0 1.0 4.0 105 129
r 1.058 2 3 cbr 500 ------- 0 1.0 4.0 106 130
r 1.063 2 3 cbr 500 ------- 0 1.0 4.0 107 131
r 1.068 2 3 cbr 500 ------- 0 1.0 4.0 108 132
r 1.073 2 3 cbr 500 ------- 0 1.0 4.0 109 133
r 1.078 2 3 cbr 500 ------- 0 1.0 4.0 110 134
r 1.083 2 3 cbr 500 ------- 0 1.0 4.0 111 135
r 1.088 2 3 cbr 500 ------- 0 1.0 4.0 112 136
r 1.093 2 3 cbr 500 ------- 0 1.0 4.0 113 137
r 1.098 2 3 cbr 500 ------- 0 1.0 4.0 114 138
r 1.103 2 3 cbr 500 ------- 0 1.0 4.0 115 139
r 1.108 2 3 cbr 500 ------- 0 1.0 4.0 116 140
r 1.113 2 3 cbr 500 ------- 0 1.0 4.0 117 141
r 1.118 2 3 cbr 500 ------- 0 1.0 4.0 118 142
r 1.123 2 3 cbr 500 ------- 0 1.0 4.0 119 143
r 1.128 2 3 cbr 500 ------- 0 1.0 4.0 120 144
r 1.133 2 3 cbr 500 ------- 0 1.0 4.0 121 145
r 1.138 2 3 cbr 500 ------- 0 1.0 4.0 122 146
r 1.143 2 3 cbr 500 ------- 0 1.0 4.0 123 147
r 1.148 2 3 cbr 500 ------- 0 1.0 4.0 124 148
r 1.153 2 3 cbr 500 ------- 0 1.0 4.0 125 149
r 1.158 2 3 cbr 500 ------- 0 1.0 4.0 126 150
r 1.163 2 3 cbr 500 ------- 0 1.0 4.0 127 151
r 1.168 2 3 cbr 500 ------- 0 1.0 4.0 128 152
r 1.173 2 3 cbr 500 ------- 0 1.0 4.0 129 153
r 1.178 2 3 cbr 500 ------- 0 1.0 4.0 130 154
r 1.183 2 3 cbr 500 ------- 0 1.0 4.0 131 155
r 1.188 2 3 cbr 500 ------- 0 1.0 4.0 132 156
r 1.193 2 3 cbr 500 ------- 0 1.0 4.0 133 157
r 1.198 2 3 cbr 500 ------- 0 1.0 4.0 134 158
r 1.203 2 3 cbr 500 ------- 0 1.0 4.0 135 159
r 1.208 2 3 cbr 500 ------- 0 1.0 4.0 136 160
r 1.213 2 3 cbr 500 ------- 0 1.0 4.0 137 161
r 1.218 2 3 cbr 500 ------- 0 1.0 4.0 138 162
r 1.223 2 3 cbr 500 ------- 0 1.0 4.0 139 163
r 1.228 2 3 cbr 500 ------- 0 1.0 4.0 140 164
r 1.233 2 3 cbr 500 ------- 0 1.0 4.0 141 165
r 1.238 2 3 cbr 500 ------- 0 1.0 4.0 142 166
r 1.243 2 3 cbr 500 ------- 0 1.0 4.0 143 167
r 1.248 2 3 cbr 500 ------- 0 1.0 4.0 144 168
r 1.253 2 3 cbr 500 ------- 0 1.0 4.0 145 169
r 1.258 2 3 cbr 500 ------- 0 1.0 4.0 146 170
r 1.263 2 3 cbr 500 ------- 0 1.0 4.0 147 171
r 1.268 2 3 cbr 500 ------- 0 1.0 4.0 148 172
r 1.273 2 3 cbr 500 ------- 0 1.0 4.0 149 173
r 1.278 2 3 cbr 500 ------- 0 1.0 4.0 150 174
r 1.283 2 3 cbr 500 ------- 0 1.0 4.0 151 175
r 1.288 2 3 cbr 500 ------- 0 1.0 4.0 152 176
r 1.293 2 3 cbr 500 ------- 0 1.0 4.0 153 177
r 1.298 2 3 cbr 500 ------- 0 1.0 4.0 154 178
r 1.303 2 3 cbr 500 ------- 0 1.0 4.0 155 179
r 1.308 2 3 cbr 500 ------- 0 1.0 4.0 156 180
r 1.313 2 3 cbr 500 ------- 0 1.0 4.0 157 181
r 1.318 2 3 cbr 500 ------- 0 1.0 4.0 158 182
r 1.323 2 3 cbr 500 ------- 0 1.0 4.0 159 183
r 1.328 2 3 cbr 500 ------- 0 1.0 4.0 160 184
r 1.333 2 3 cbr 500 ------- 0 1.0 4.0 161 185
r 1.338 2 3 cbr 500 ------- 0 1.0 4.0 162 186
r 1.343 2 3 cbr 500 ------- 0 1.0 4.0 163 187
r 1.348 2 3 cbr 500 ------- 0 1.0 4.0 164 188
r 1.353 2 3 cbr 500 ------- 0 1.0 4.0 165 189
r 1.358 2 3 cbr 500 ------- 0 1.0 4.0 166 190
r 1.363 2 3 cbr 500 ------- 0 1.0 4.0 167 191
r 1.368 2 3 cbr 500 ------- 0 1.0 4.0 168 192
r 1.373 2 3 cbr 500 ------- 0 1.0 4.0 169 193
r 1.378 2 3 cbr 500 ------- 0 1.0 4.0 170 194
r 1.383 2 3 cbr 500 ------- 0 1.0 4.0 171 195
r 1.388 2 3 cbr 500 ------- 0 1.0 4.0 172 196
r 1.393 2 3 cbr 500 ------- 0 1.0 4.0 173 197
r 1.398 2 3 cbr 500 ------- 0 1.0 4.0 174 198
r 1.403 2 3 cbr 500 ------- 0 1.0 4.0 175 199
r 1.408 2 3 cbr 500 ------- 0 1.0 4.0 176 200
r 1.413 2 3 cbr 500 ------- 0 1.0 4.0 177 201
r 1.418 2 3 cbr 500 ------- 0 1.0 4.0 178 202
r 1.423 2 3 cbr 500 ------- 0 1.0 4.0 179 203
r 1.428 2 3 cbr 500 ------- 0 1.0 4.0 180 204
r 1.433 2 3 cbr 500 ------- 0 1.0 4.0 181 205
r 1.438 2 3 cbr 500 ------- 0 1.0 4.0 182 206
r 1.443 2 3 cbr 500 ------- 0 1.0 4.0 183 207
r 1.448 2 3 cbr 500 ------- 0 1.0 4.0 184 208
r 1.453 2 3 cbr 500 ------- 0 1.0 4.0 185 209
r 1.458 2 3 cbr 500 ------- 0 1.0 4.0 186 210
r 1.463 2 3 cbr 500 ------- 0 1.0 4.0 187 211
r 1.468 2 3 cbr 500 ------- 0 1.0 4.0 188 212
r 1.473 2 3 cbr 500 ------- 0 1.0 4.0 189 213
r 1.478 2 3 cbr 500 ------- 0 1.0 4.0 190 214
r 1.483 2 3 cbr 500 ------- 0 1.0 4.0 191 215
r 1.488 2 3 cbr 500 ------- 0 1.0 4.0 192 216
r 1.493 2 3 cbr 500 ------- 0 1.0 4.0 193 217
r 1.498 2 3 cbr 500 ------- 0 1.0 4.0 194 218
r 1.503 2 3 cbr 500 ------- 0 1.0 4.0 195 219
r 1.508 2 3 cbr 500 ------- 0 1.0 4.0 196 220
r 1.513 2 3 cbr 500 ------- 0 1.0 4.0 197 221
r 1.518 2 3 cbr 500 ------- 0 1.0 4.0 198 222
r 1.523 2 3 cbr 500 ------- 0 1.0 4.0 199 223
r 1.528 2 3 cbr 500 ------- 0 1.0 4.0 200 224
r 1.533 2 3 cbr 500 ------- 0 1.0 4.0 201 225
r 1.538 2 3 cbr 500 ------- 0 1.0 4.0 202 226
r 1.543 2 3 cbr 500 ------- 0 1.0 4.0 203 227
r 1.548 2 3 cbr 500 ------- 0 1.0 4.0 204 228
r 1.553 2 3 cbr 500 ------- 0 1.0 4.0 205 229
r 1.558 2 3 cbr 500 ------- 0 1.0 4.0 206 230
r 1.563 2 3 cbr 500 ------- 0 1.0 4.0 207 231
r 1.568 2 3 cbr 500 ------- 0 1.0 4.0 208 232
r 1.573 2 3 cbr 500 ------- 0 1.0 4.0 209 233
r 1.578 2 3 cbr 500 ------- 0 1.0 4.0 210 234
r 1.583 2 3 cbr 500 ------- 0 1.0 4.0 211 235
r 1.588 2 3 cbr 500 ------- 0 1.0 4.0 212 236
r 1.593 2 3 cbr 500 ------- 0 1.0 4.0 213 237
r 1.598 2 3 cbr 500 ------- 0 1.0 4.0 214 238
r 1.603 2 3 cbr 500 ------- 0 1.0 4.0 215 239
r 1.608 2 3 cbr 500 ------- 0 1.0 4.0 216 240
r 1.613 2 3 cbr 500 ------- 0 1.0 4.0 217 241
r 1.618 2 3 cbr 500 ------- 0 1.0 4.0 218 242
r 1.623 2 3 cbr 500 ------- 0 1.0 4.0 219 243
r 1.628 2 3 cbr 500 ------- 0 1.0 4.0 220 244
r 1.633 2 3 cbr 500 ------- 0 1.0 4.0 221 245
r 1.638 2 3 cbr 500 ------- 0 1.0 4.0 222 246
r 1.643 2 3 cbr 500 ------- 0 1.0 4.0 223 247
r 1.648 2 3 cbr 500 ------- 0 1.0 4.0 224 248
r 1.653 2 3 cbr 500 ------- 0 1.0 4.0 225 249
r 1.658 2 3 cbr 500 ------- 0 1.0 4.0 226 250
r 1.663 2 3 cbr 500 ------- 0 1.0 4.0 227 251
r 1.668 2 3 cbr 500 ------- 0 1.0 4.0 228 252
r 1.673 2 3 cbr 500 ------- 0 1.0 4.0 229 253
r 1.678 2 3 cbr 500 ------- 0 1.0 4.0 230 254
r 1.683 2 3 cbr 500 ------- 0 1.0 4.0 231 255
r 1.688 2 3 cbr 500 ------- 0 1.0 4.0 232 256
r 1.693 2 3 cbr 500 ------- 0 1.0 4.0 233 257
r 1.698 2 3 cbr 500 ------- 0 1.0 4.0 234 258
r 1.703 2 3 cbr 500 ------- 0 1.0 4.0 235 259
r 1.708 2 3 cbr 500 ------- 0 1.0 4.0 236 260
r 1.713 2 3 cbr 500 ------- 0 1.0 4.0 237 261
r 1.718 2 3 cbr 500 ------- 0 1.0 4.0 238 262
r 1.723 2 3 cbr 500 ------- 0 1.0 4.0 239 263
r 1.728 2 3 cbr 500 ------- 0 1.0 4.0 240 264
r 1.733 2 3 cbr 500 ------- 0 1.0 4.0 241 265
r 1.738 2 3 cbr 500 ------- 0 1.0 4.0 242 266
r 1.743 2 3 cbr 500 ------- 0 1.0 4.0 243 267
r 1.748 2 3 cbr 500 ------- 0 1.0 4.0 244 268
r 1.753 2 3 cbr 500 ------- 0 1.0 4.0 245 269
r 1.758 2 3 cbr 500 ------- 0 1.0 4.0 246 270
r 1.763 2 3 cbr 500 ------- 0 1.0 4.0 247 271
r 1.768 2 3 cbr 500 ------- 0 1.0 4.0 248 272
r 1.773 2 3 cbr 500 ------- 0 1.0 4.0 249 273
r 1.778 2 3 cbr 500 ------- 0 1.0 4.0 250 274
r 1.783 2 3 cbr 500 ------- 0 1.0 4.0 251 275
r 1.788 2 3 cbr 500 ------- 0 1.0 4.0 252 276
r 1.793 2 3 cbr 500 ------- 0 1.0 4.0 253 277
r 1.798 2 3 cbr 500 ------- 0 1.0 4.0 254 278
r 1.803 2 3 cbr 500 ------- 0 1.0 4.0 255 279
r 1.808 2 3 cbr 500 ------- 0 1.0 4.0 256 280
r 1.813 2 3 cbr 500 ------- 0 1.0 4.0 257 281
r 1.818 2 3 cbr 500 ------- 0 1.0 4.0 258 282
r 1.823 2 3 cbr 500 ------- 0 1.0 4.0 259 283
r 1.828 2 3 cbr 500 ------- 0 1.0 4.0 260 284
r 1.833 2 3 cbr 500 ------- 0 1.0 4.0 261 285
r 1.838 2 3 cbr 500 ------- 0 1.0 4.0 262 286
r 1.843 2 3 cbr 500 ------- 0 1.0 4.0 263 287
r 1.848 2 3 cbr 500 ------- 0 1.0 4.0 264 288
r 1.853 2 3 cbr 500 ------- 0 1.0 4.0 265 289
r 1.858 2 3 cbr 500 ------- 0 1.0 4.0 266 290
r 1.863 2 3 cbr 500 ------- 0 1.0 4.0 267 291
r 1.868 2 3 cbr 500 ------- 0 1.0 4.0 268 292
r 1.873 2 3 cbr 500 ------- 0 1.0 4.0 269 293
r 1.878 2 3 cbr 500 ------- 0 1.0 4.0 270 294
r 1.883 2 3 cbr 500 ------- 0 1.0 4.0 271 295
r 1.888 2 3 cbr 500 ------- 0 1.0 4.0 272 296
r 1.893 2 3 cbr 500 ------- 0 1.0 4.0 273 297
r 1.898 2 3 cbr 500 ------- 0 1.0 4.0 274 298
r 1.903 2 3 cbr 500 ------- 0 1.0 4.0 275 299
r 1.908 2 3 cbr 500 ------- 0 1.0 4.0 276 300
r 1.913 2 3 cbr 500 ------- 0 1.0 4.0 277 301
r 1.918 2 3 cbr 500 ------- 0 1.0 4.0 278 302
r 1.923 2 3 cbr 500 ------- 0 1.0 4.0 279 303
r 1.928 2 3 cbr 500 ------- 0 1.0 4.0 280 304
r 1.933 2 3 cbr 500 ------- 0 1.0 4.0 281 305
r 1.938 2 3 cbr 500 ------- 0 1.0 4.0 282 306
r 1.943 2 3 cbr 500 ------- 0 1.0 4.0 283 307
r 1.94304 2 3 rtProtoDV 5 ------- 0 2.1 3.1 -1 312
r 1.948 2 3 cbr 500 ------- 0 1.0 4.0 284 308
r 1.953 2 3 cbr 500 ------- 0 1.0 4.0 285 309
r 1.958 2 3 cbr 500 ------- 0 1.0 4.0 286 310
r 1.963 2 3 cbr 500 ------- 0 1.0 4.0 287 313
r 1.968 2 3 cbr 500 ------- 0 1.0 4.0 288 314
r 1.973 2 3 cbr 500 ------- 0 1.0 4.0 289 315
r 1.978 2 3 cbr 500 ------- 0 1.0 4.0 290 316
r 1.983 2 3 cbr 500 ------- 0 1.0 4.0 291 317
r 1.988 2 3 cbr 500 ------- 0 1.0 4.0 292 318
r 1.993 2 3 cbr 500 ------- 0 1.0 4.0 293 319
r 1.998 2 3 cbr 500 ------- 0 1.0 4.0 294 320
r 2.003 2 3 cbr 500 ------- 0 1.0 4.0 295 321
r 2.008 2 3 cbr 500 ------- 0 1.0 4.0 296 322
r 2.013 2 3 cbr 500 ------- 0 1.0 4.0 297 323
r 2.018 2 3 cbr 500 ------- 0 1.0 4.0 298 324
r 2.023 2 3 cbr 500 ------- 0 1.0 4.0 299 325
r 2.028 2 3 cbr 500 ------- 0 1.0 4.0 300 326
r 2.033 2 3 cbr 500 ------- 0 1.0 4.0 301 327
r 2.038 2 3 cbr 500 ------- 0 1.0 4.0 302 328
r 2.043 2 3 cbr 500 ------- 0 1.0 4.0 303 329
r 2.048 2 3 cbr 500 ------- 0 1.0 4.0 304 330
r 2.053 2 3 cbr 500 ------- 0 1.0 4.0 305 331
r 2.058 2 3 cbr 500 ------- 0 1.0 4.0 306 332
r 2.063 2 3 cbr 500 ------- 0 1.0 4.0 307 333
r 2.068 2 3 cbr 500 ------- 0 1.0 4.0 308 334
r 2.073 2 3 cbr 500 ------- 0 1.0 4.0 309 335
r 2.078 2 3 cbr 500 ------- 0 1.0 4.0 310 336
r 2.083 2 3 cbr 500 ------- 0 1.0 4.0 311 337
r 2.088 2 3 cbr 500 ------- 0 1.0 4.0 312 338
r 2.093 2 3 cbr 500 ------- 0 1.0 4.0 313 339
r 2.098 2 3 cbr 500 ------- 0 1.0 4.0 314 340
r 2.103 2 3 cbr 500 ------- 0 1.0 4.0 315 341
r 2.108 2 3 cbr 500 ------- 0 1.0 4.0 316 342
r 2.113 2 3 cbr 500 ------- 0 1.0 4.0 317 343
r 2.118 2 3 cbr 500 ------- 0 1.0 4.0 318 344
r 2.123 2 3 cbr 500 ------- 0 1.0 4.0 319 345
r 2.128 2 3 cbr 500 ------- 0 1.0 4.0 320 346
r 2.133 2 3 cbr 500 ------- 0 1.0 4.0 321 347
r 2.138 2 3 cbr 500 ------- 0 1.0 4.0 322 348
r 2.143 2 3 cbr 500 ------- 0 1.0 4.0 323 350
r 2.148 2 3 cbr 500 ------- 0 1.0 4.0 324 352
r 2.153 2 3 cbr 500 ------- 0 1.0 4.0 325 353
r 2.158 2 3 cbr 500 ------- 0 1.0 4.0 326 354
r 2.163 2 3 cbr 500 ------- 0 1.0 4.0 327 355
r 2.168 2 3 cbr 500 ------- 0 1.0 4.0 328 356
r 2.173 2 3 cbr 500 ------- 0 1.0 4.0 329 357
r 2.178 2 3 cbr 500 ------- 0 1.0 4.0 330 358
r 2.183 2 3 cbr 500 ------- 0 1.0 4.0 331 359
r 2.188 2 3 cbr 500 ------- 0 1.0 4.0 332 360
r 2.193 2 3 cbr 500 ------- 0 1.0 4.0 333 361
r 2.198 2 3 cbr 500 ------- 0 1.0 4.0 334 362
r 2.203 2 3 cbr 500 ------- 0 1.0 4.0 335 365
r 2.208 2 3 cbr 500 ------- 0 1.0 4.0 336 366
r 2.213 2 3 cbr 500 ------- 0 1.0 4.0 337 367
r 2.218 2 3 cbr 500 ------- 0 1.0 4.0 338 368
r 2.223 2 3 cbr 500 ------- 0 1.0 4.0 339 369
r 2.228 2 3 cbr 500 ------- 0 1.0 4.0 340 370
r 2.233 2 3 cbr 500 ------- 0 1.0 4.0 341 371
r 2.238 2 3 cbr 500 ------- 0 1.0 4.0 342 372
r 2.243 2 3 cbr 500 ------- 0 1.0 4.0 343 373
r 2.248 2 3 cbr 500 ------- 0 1.0 4.0 344 374
r 2.253 2 3 cbr 500 ------- 0 1.0 4.0 345 375
r 2.258 2 3 cbr 500 ------- 0 1.0 4.0 346 376
r 2.263 2 3 cbr 500 ------- 0 1.0 4.0 347 377
r 2.268 2 3 cbr 500 ------- 0 1.0 4.0 348 378
r 2.273 2 3 cbr 500 ------- 0 1.0 4.0 349 379
r 2.278 2 3 cbr 500 ------- 0 1.0 4.0 350 380
r 2.283 2 3 cbr 500 ------- 0 1.0 4.0 351 381
r 2.288 2 3 cbr 500 ------- 0 1.0 4.0 352 382
r 2.293 2 3 cbr 500 ------- 0 1.0 4.0 353 383
r 2.298 2 3 cbr 500 ------- 0 1.0 4.0 354 384
r 2.303 2 3 cbr 500 ------- 0 1.0 4.0 355 385
r 2.308 2 3 cbr 500 ------- 0 1.0 4.0 356 386
r 2.313 2 3 cbr 500 ------- 0 1.0 4.0 357 387
r 2.318 2 3 cbr 500 ------- 0 1.0 4.0 358 388
r 2.323 2 3 cbr 500 ------- 0 1.0 4.0 359 389
r 2.328 2 3 cbr 500 ------- 0 1.0 4.0 360 390
r 2.333 2 3 cbr 500 ------- 0 1.0 4.0 361 391
r 2.338 2 3 cbr 500 ------- 0 1.0 4.0 362 392
r 2.343 2 3 cbr 500 ------- 0 1.0 4.0 363 393
r 2.348 2 3 cbr 500 ------- 0 1.0 4.0 364 394
r 2.353 2 3 cbr 500 ------- 0 1.0 4.0 365 395
r 2.358 2 3 cbr 500 ------- 0 1.0 4.0 366 396
r 2.363 2 3 cbr 500 ------- 0 1.0 4.0 367 399
r 2.368 2 3 cbr 500 ------- 0 1.0 4.0 368 400
r 2.373 2 3 cbr 500 ------- 0 1.0 4.0 369 401
r 2.378 2 3 cbr 500 ------- 0 1.0 4.0 370 402
r 2.383 2 3 cbr 500 ------- 0 1.0 4.0 371 403
r 2.388 2 3 cbr 500 ------- 0 1.0 4.0 372 404
r 2.393 2 3 cbr 500 ------- 0 1.0 4.0 373 405
r 2.398 2 3 cbr 500 ------- 0 1.0 4.0 374 406
r 2.403 2 3 cbr 500 ------- 0 1.0 4.0 375 407
r 2.408 2 3 cbr 500 ------- 0 1.0 4.0 376 408
r 2.413 2 3 cbr 500 ------- 0 1.0 4.0 377 409
r 2.418 2 3 cbr 500 ------- 0 1.0 4.0 378 410
r 2.423 2 3 cbr 500 ------- 0 1.0 4.0 379 411
r 2.428 2 3 cbr 500 ------- 0 1.0 4.0 380 412
r 2.433 2 3 cbr 500 ------- 0 1.0 4.0 381 413
r 2.438 2 3 cbr 500 ------- 0 1.0 4.0 382 414
r 2.443 2 3 cbr 500 ------- 0 1.0 4.0 383 415
r 2.448 2 3 cbr 500 ------- 0 1.0 4.0 384 416
r 2.453 2 3 cbr 500 ------- 0 1.0 4.0 385 417
r 2.458 2 3 cbr 500 ------- 0 1.0 4.0 386 418
r 2.463 2 3 cbr 500 ------- 0 1.0 4.0 387 419
r 2.468 2 3 cbr 500 ------- 0 1.0 4.0 388 420
r 2.473 2 3 cbr 500 ------- 0 1.0 4.0 389 421
r 2.478 2 3 cbr 500 ------- 0 1.0 4.0 390 422
r 2.483 2 3 cbr 500 ------- 0 1.0 4.0 391 423
r 2.488 2 3 cbr 500 ------- 0 1.0 4.0 392 424
r 2.493 2 3 cbr 500 ------- 0 1.0 4.0 393 425
r 2.498 2 3 cbr 500 ------- 0 1.0 4.0 394 426
r 2.503 2 3 cbr 500 ------- 0 1.0 4.0 395 427
r 2.508 2 3 cbr 500 ------- 0 1.0 4.0 396 428
r 2.513 2 3 cbr 500 ------- 0 1.0 4.0 397 429
r 2.518 2 3 cbr 500 ------- 0 1.0 4.0 398 430
r 2.523 2 3 cbr 500 ------- 0 1.0 4.0 399 431
r 2.528 2 3 cbr 500 ------- 0 1.0 4.0 400 432
r 2.533 2 3 cbr 500 ------- 0 1.0 4.0 401 433
r 2.538 2 3 cbr 500 ------- 0 1.0 4.0 402 434
r 2.543 2 3 cbr 500 ------- 0 1.0 4.0 403 435
r 2.548 2 3 cbr 500 ------- 0 1.0 4.0 404 436
r 2.553 2 3 cbr 500 ------- 0 1.0 4.0 405 437
r 2.558 2 3 cbr 500 ------- 0 1.0 4.0 406 438
r 2.563 2 3 cbr 500 ------- 0 1.0 4.0 407 439
r 2.568 2 3 cbr 500 ------- 0 1.0 4.0 408 440
r 2.573 2 3 cbr 500 ------- 0 1.0 4.0 409 441
r 2.578 2 3 cbr 500 ------- 0 1.0 4.0 410 442
r 2.583 2 3 cbr 500 ------- 0 1.0 4.0 411 443
r 2.588 2 3 cbr 500 ------- 0 1.0 4.0 412 444
r 2.593 2 3 cbr 500 ------- 0 1.0 4.0 413 445
r 2.598 2 3 cbr 500 ------- 0 1.0 4.0 414 446
r 2.603 2 3 cbr 500 ------- 0 1.0 4.0 415 447
r 2.608 2 3 cbr 500 ------- 0 1.0 4.0 416 448
r 2.613 2 3 cbr 500 ------- 0 1.0 4.0 417 449
r 2.618 2 3 cbr 500 ------- 0 1.0 4.0 418 450
r 2.623 2 3 cbr 500 ------- 0 1.0 4.0 419 451
r 2.628 2 3 cbr 500 ------- 0 1.0 4.0 420 452
r 2.633 2 3 cbr 500 ------- 0 1.0 4.0 421 453
r 2.638 2 3 cbr 500 ------- 0 1.0 4.0 422 454
r 2.643 2 3 cbr 500 ------- 0 1.0 4.0 423 455
r 2.648 2 3 cbr 500 ------- 0 1.0 4.0 424 456
r 2.653 2 3 cbr 500 ------- 0 1.0 4.0 425 457
r 2.658 2 3 cbr 500 ------- 0 1.0 4.0 426 458
r 2.663 2 3 cbr 500 ------- 0 1.0 4.0 427 459
r 2.668 2 3 cbr 500 ------- 0 1.0 4.0 428 460
r 2.673 2 3 cbr 500 ------- 0 1.0 4.0 429 461
r 2.678 2 3 cbr 500 ------- 0 1.0 4.0 430 462
r 2.683 2 3 cbr 500 ------- 0 1.0 4.0 431 463
r 2.688 2 3 cbr 500 ------- 0 1.0 4.0 432 464
r 2.693 2 3 cbr 500 ------- 0 1.0 4.0 433 465
r 2.698 2 3 cbr 500 ------- 0 1.0 4.0 434 466
r 2.703 2 3 cbr 500 ------- 0 1.0 4.0 435 467
r 2.708 2 3 cbr 500 ------- 0 1.0 4.0 436 468
r 2.713 2 3 cbr 500 ------- 0 1.0 4.0 437 469
r 2.718 2 3 cbr 500 ------- 0 1.0 4.0 438 470
r 2.723 2 3 cbr 500 ------- 0 1.0 4.0 439 471
r 2.728 2 3 cbr 500 ------- 0 1.0 4.0 440 472
r 2.733 2 3 cbr 500 ------- 0 1.0 4.0 441 473
r 2.738 2 3 cbr 500 ------- 0 1.0 4.0 442 474
r 2.743 2 3 cbr 500 ------- 0 1.0 4.0 443 475
r 2.748 2 3 cbr 500 ------- 0 1.0 4.0 444 476
r 2.753 2 3 cbr 500 ------- 0 1.0 4.0 445 477
r 2.758 2 3 cbr 500 ------- 0 1.0 4.0 446 478
r 2.763 2 3 cbr 500 ------- 0 1.0 4.0 447 479
r 2.768 2 3 cbr 500 ------- 0 1.0 4.0 448 480
r 2.773 2 3 cbr 500 ------- 0 1.0 4.0 449 481
r 2.778 2 3 cbr 500 ------- 0 1.0 4.0 450 482
r 2.783 2 3 cbr 500 ------- 0 1.0 4.0 451 483
r 2.788 2 3 cbr 500 ------- 0 1.0 4.0 452 484
r 2.793 2 3 cbr 500 ------- 0 1.0 4.0 453 485
r 2.798 2 3 cbr 500 ------- 0 1.0 4.0 454 486
r 2.803 2 3 cbr 500 ------- 0 1.0 4.0 455 487
r 2.808 2 3 cbr 500 ------- 0 1.0 4.0 456 488
r 2.813 2 3 cbr 500 ------- 0 1.0 4.0 457 489
r 2.818 2 3 cbr 500 ------- 0 1.0 4.0 458 490
r 2.823 2 3 cbr 500 ------- 0 1.0 4.0 459 491
r 2.828 2 3 cbr 500 ------- 0 1.0 4.0 460 492
r 2.833 2 3 cbr 500 ------- 0 1.0 4.0 461 493
r 2.838 2 3 cbr 500 ------- 0 1.0 4.0 462 494
r 2.843 2 3 cbr 500 ------- 0 1.0 4.0 463 495
r 2.848 2 3 cbr 500 ------- 0 1.0 4.0 464 496
r 2.853 2 3 cbr 500 ------- 0 1.0 4.0 465 497
r 2.858 2 3 cbr 500 ------- 0 1.0 4.0 466 498
r 2.863 2 3 cbr 500 ------- 0 1.0 4.0 467 499
r 2.868 2 3 cbr 500 ------- 0 1.0 4.0 468 500
r 2.873 2 3 cbr 500 ------- 0 1.0 4.0 469 501
r 2.878 2 3 cbr 500 ------- 0 1.0 4.0 470 502
r 2.883 2 3 cbr 500 ------- 0 1.0 4.0 471 503
r 2.888 2 3 cbr 500 ------- 0 1.0 4.0 472 504
r 2.893 2 3 cbr 500 ------- 0 1.0 4.0 473 505
r 2.898 2 3 cbr 500 ------- 0 1.0 4.0 474 506
r 2.903 2 3 cbr 500 ------- 0 1.0 4.0 475 507
r 2.908 2 3 cbr 500 ------- 0 1.0 4.0 476 508
r 2.913 2 3 cbr 500 ------- 0 1.0 4.0 477 509
r 2.918 2 3 cbr 500 ------- 0 1.0 4.0 478 510
r 2.923 2 3 cbr 500 ------- 0 1.0 4.0 479 511
r 2.928 2 3 cbr 500 ------- 0 1.0 4.0 480 512
r 2.933 2 3 cbr 500 ------- 0 1.0 4.0 481 513
r 2.938 2 3 cbr 500 ------- 0 1.0 4.0 482 514
r 2.943 2 3 cbr 500 ------- 0 1.0 4.0 483 515
r 2.948 2 3 cbr 500 ------- 0 1.0 4.0 484 516
r 2.953 2 3 cbr 500 ------- 0 1.0 4.0 485 517
r 2.958 2 3 cbr 500 ------- 0 1.0 4.0 486 518
r 2.963 2 3 cbr 500 ------- 0 1.0 4.0 487 519
r 2.968 2 3 cbr 500 ------- 0 1.0 4.0 488 520
r 2.973 2 3 cbr 500 ------- 0 1.0 4.0 489 521
r 2.978 2 3 cbr 500 ------- 0 1.0 4.0 490 522
r 2.983 2 3 cbr 500 ------- 0 1.0 4.0 491 523
r 2.988 2 3 cbr 500 ------- 0 1.0 4.0 492 524
r 2.993 2 3 cbr 500 ------- 0 1.0 4.0 493 525
r 2.998 2 3 cbr 500 ------- 0 1.0 4.0 494 526
r 3.003 2 3 cbr 500 ------- 0 1.0 4.0 495 527
r 3.008 2 3 cbr 500 ------- 0 1.0 4.0 496 528
r 3.013 2 3 cbr 500 ------- 0 1.0 4.0 497 529
r 3.018 2 3 cbr 500 ------- 0 1.0 4.0 498 530
r 3.023 2 3 cbr 500 ------- 0 1.0 4.0 499 531
r 3.028 2 3 cbr 500 ------- 0 1.0 4.0 500 532
r 3.033 2 3 cbr 500 ------- 0 1.0 4.0 501 533
r 3.038 2 3 cbr 500 ------- 0 1.0 4.0 502 534
r 3.043 2 3 cbr 500 ------- 0 1.0 4.0 503 535
r 3.048 2 3 cbr 500 ------- 0 1.0 4.0 504 536
r 3.053 2 3 cbr 500 ------- 0 1.0 4.0 505 537
r 3.058 2 3 cbr 500 ------- 0 1.0 4.0 506 538
r 3.063 2 3 cbr 500 ------- 0 1.0 4.0 507 539
r 3.068 2 3 cbr 500 ------- 0 1.0 4.0 508 540
r 3.073 2 3 cbr 500 ------- 0 1.0 4.0 509 541
r 3.078 2 3 cbr 500 ------- 0 1.0 4.0 510 542
r 3.083 2 3 cbr 500 ------- 0 1.0 4.0 511 543
r 3.088 2 3 cbr 500 ------- 0 1.0 4.0 512 544
r 3.093 2 3 cbr 500 ------- 0 1.0 4.0 513 545
r 3.098 2 3 cbr 500 ------- 0 1.0 4.0 514 546
r 3.103 2 3 cbr 500 ------- 0 1.0 4.0 515 547
r 3.108 2 3 cbr 500 ------- 0 1.0 4.0 516 548
r 3.113 2 3 cbr 500 ------- 0 1.0 4.0 517 549
r 3.118 2 3 cbr 500 ------- 0 1.0 4.0 518 550
r 3.123 2 3 cbr 500 ------- 0 1.0 4.0 519 551
r 3.128 2 3 cbr 500 ------- 0 1.0 4.0 520 552
r 3.133 2 3 cbr 500 ------- 0 1.0 4.0 521 553
r 3.138 2 3 cbr 500 ------- 0 1.0 4.0 522 554
r 3.143 2 3 cbr 500 ------- 0 1.0 4.0 523 555
r 3.148 2 3 cbr 500 ------- 0 1.0 4.0 524 556
r 3.153 2 3 cbr 500 ------- 0 1.0 4.0 525 557
r 3.158 2 3 cbr 500 ------- 0 1.0 4.0 526 558
r 3.163 2 3 cbr 500 ------- 0 1.0 4.0 527 559
r 3.168 2 3 cbr 500 ------- 0 1.0 4.0 528 560
r 3.173 2 3 cbr 500 ------- 0 1.0 4.0 529 561
r 3.178 2 3 cbr 500 ------- 0 1.0 4.0 530 562
r 3.183 2 3 cbr 500 ------- 0 1.0 4.0 531 563
r 3.188 2 3 cbr 500 ------- 0 1.0 4.0 532 564
r 3.193 2 3 cbr 500 ------- 0 1.0 4.0 533 565
r 3.198 2 3 cbr 500 ------- 0 1.0 4.0 534 566
r 3.203 2 3 cbr 500 ------- 0 1.0 4.0 535 567
r 3.208 2 3 cbr 500 ------- 0 1.0 4.0 536 568
r 3.213 2 3 cbr 500 ------- 0 1.0 4.0 537 569
r 3.218 2 3 cbr 500 ------- 0 1.0 4.0 538 570
r 3.223 2 3 cbr 500 ------- 0 1.0 4.0 539 571
r 3.228 2 3 cbr 500 ------- 0 1.0 4.0 540 572
r 3.233 2 3 cbr 500 ------- 0 1.0 4.0 541 573
r 3.238 2 3 cbr 500 ------- 0 1.0 4.0 542 574
r 3.243 2 3 cbr 500 ------- 0 1.0 4.0 543 575
r 3.248 2 3 cbr 500 ------- 0 1.0 4.0 544 576
r 3.253 2 3 cbr 500 ------- 0 1.0 4.0 545 577
r 3.258 2 3 cbr 500 ------- 0 1.0 4.0 546 578
r 3.263 2 3 cbr 500 ------- 0 1.0 4.0 547 579
r 3.268 2 3 cbr 500 ------- 0 1.0 4.0 548 580
r 3.273 2 3 cbr 500 ------- 0 1.0 4.0 549 581
r 3.278 2 3 cbr 500 ------- 0 1.0 4.0 550 582
r 3.283 2 3 cbr 500 ------- 0 1.0 4.0 551 583
r 3.288 2 3 cbr 500 ------- 0 1.0 4.0 552 584
r 3.293 2 3 cbr 500 ------- 0 1.0 4.0 553 585
r 3.298 2 3 cbr 500 ------- 0 1.0 4.0 554 586
r 3.303 2 3 cbr 500 ------- 0 1.0 4.0 555 587
r 3.308 2 3 cbr 500 ------- 0 1.0 4.0 556 588
r 3.313 2 3 cbr 500 ------- 0 1.0 4.0 557 589
r 3.318 2 3 cbr 500 ------- 0 1.0 4.0 558 590
r 3.323 2 3 cbr 500 ------- 0 1.0 4.0 559 591
r 3.328 2 3 cbr 500 ------- 0 1.0 4.0 560 592
r 3.333 2 3 cbr 500 ------- 0 1.0 4.0 561 593
r 3.338 2 3 cbr 500 ------- 0 1.0 4.0 562 594
r 3.343 2 3 cbr 500 ------- 0 1.0 4.0 563 595
r 3.348 2 3 cbr 500 ------- 0 1.0 4.0 564 596
r 3.353 2 3 cbr 500 ------- 0 1.0 4.0 565 597
r 3.358 2 3 cbr 500 ------- 0 1.0 4.0 566 598
r 3.363 2 3 cbr 500 ------- 0 1.0 4.0 567 599
r 3.368 2 3 cbr 500 ------- 0 1.0 4.0 568 600
r 3.373 2 3 cbr 500 ------- 0 1.0 4.0 569 601
r 3.378 2 3 cbr 500 ------- 0 1.0 4.0 570 602
r 3.383 2 3 cbr 500 ------- 0 1.0 4.0 571 603
r 3.388 2 3 cbr 500 ------- 0 1.0 4.0 572 604
r 3.393 2 3 cbr 500 ------- 0 1.0 4.0 573 605
r 3.398 2 3 cbr 500 ------- 0 1.0 4.0 574 606
r 3.403 2 3 cbr 500 ------- 0 1.0 4.0 575 607
r 3.408 2 3 cbr 500 ------- 0 1.0 4.0 576 608
r 3.413 2 3 cbr 500 ------- 0 1.0 4.0 577 609
r 3.418 2 3 cbr 500 ------- 0 1.0 4.0 578 610
r 3.423 2 3 cbr 500 ------- 0 1.0 4.0 579 611
r 3.428 2 3 cbr 500 ------- 0 1.0 4.0 580 612
r 3.433 2 3 cbr 500 ------- 0 1.0 4.0 581 613
r 3.438 2 3 cbr 500 ------- 0 1.0 4.0 582 614
r 3.443 2 3 cbr 500 ------- 0 1.0 4.0 583 615
r 3.448 2 3 cbr 500 ------- 0 1.0 4.0 584 616
r 3.453 2 3 cbr 500 ------- 0 1.0 4.0 585 617
r 3.458 2 3 cbr 500 ------- 0 1.0 4.0 586 618
r 3.463 2 3 cbr 500 ------- 0 1.0 4.0 587 619
r 3.468 2 3 cbr 500 ------- 0 1.0 4.0 588 620
r 3.473 2 3 cbr 500 ------- 0 1.0 4.0 589 621
r 3.478 2 3 cbr 500 ------- 0 1.0 4.0 590 622
r 3.483 2 3 cbr 500 ------- 0 1.0 4.0 591 623
r 3.488 2 3 cbr 500 ------- 0 1.0 4.0 592 624
r 3.493 2 3 cbr 500 ------- 0 1.0 4.0 593 625
r 3.498 2 3 cbr 500 ------- 0 1.0 4.0 594 626
r 3.503 2 3 cbr 500 ------- 0 1.0 4.0 595 627
r 3.508 2 3 cbr 500 ------- 0 1.0 4.0 596 628
r 3.513 2 3 cbr 500 ------- 0 1.0 4.0 597 629
r 3.518 2 3 cbr 500 ------- 0 1.0 4.0 598 630
r 3.523 2 3 cbr 500 ------- 0 1.0 4.0 599 631
r 3.528 2 3 cbr 500 ------- 0 1.0 4.0 600 632
r 3.533 2 3 cbr 500 ------- 0 1.0 4.0 601 633
r 3.538 2 3 cbr 500 ------- 0 1.0 4.0 602 634
r 3.543 2 3 cbr 500 ------- 0 1.0 4.0 603 635
r 3.548 2 3 cbr 500 ------- 0 1.0 4.0 604 636
r 3.553 2 3 cbr 500 ------- 0 1.0 4.0 605 637
r 3.558 2 3 cbr 500 ------- 0 1.0 4.0 606 638
r 3.563 2 3 cbr 500 ------- 0 1.0 4.0 607 639
r 3.568 2 3 cbr 500 ------- 0 1.0 4.0 608 640
r 3.573 2 3 cbr 500 ------- 0 1.0 4.0 609 641
r 3.578 2 3 cbr 500 ------- 0 1.0 4.0 610 642
r 3.583 2 3 cbr 500 ------- 0 1.0 4.0 611 643
r 3.588 2 3 cbr 500 ------- 0 1.0 4.0 612 644
r 3.593 2 3 cbr 500 ------- 0 1.0 4.0 613 645
r 3.598 2 3 cbr 500 ------- 0 1.0 4.0 614 646
r 3.603 2 3 cbr 500 ------- 0 1.0 4.0 615 647
r 3.608 2 3 cbr 500 ------- 0 1.0 4.0 616 648
r 3.613 2 3 cbr 500 ------- 0 1.0 4.0 617 649
r 3.618 2 3 cbr 500 ------- 0 1.0 4.0 618 650
r 3.623 2 3 cbr 500 ------- 0 1.0 4.0 619 651
r 3.628 2 3 cbr 500 ------- 0 1.0 4.0 620 652
r 3.633 2 3 cbr 500 ------- 0 1.0 4.0 621 653
r 3.638 2 3 cbr 500 ------- 0 1.0 4.0 622 654
r 3.643 2 3 cbr 500 ------- 0 1.0 4.0 623 655
r 3.648 2 3 cbr 500 ------- 0 1.0 4.0 624 656
r 3.653 2 3 cbr 500 ------- 0 1.0 4.0 625 657
r 3.658 2 3 cbr 500 ------- 0 1.0 4.0 626 658
r 3.663 2 3 cbr 500 ------- 0 1.0 4.0 627 659
r 3.668 2 3 cbr 500 ------- 0 1.0 4.0 628 660
r 3.673 2 3 cbr 500 ------- 0 1.0 4.0 629 661
r 3.678 2 3 cbr 500 ------- 0 1.0 4.0 630 662
r 3.683 2 3 cbr 500 ------- 0 1.0 4.0 631 663
r 3.688 2 3 cbr 500 ------- 0 1.0 4.0 632 664
r 3.693 2 3 cbr 500 ------- 0 1.0 4.0 633 665
r 3.698 2 3 cbr 500 ------- 0 1.0 4.0 634 666
r 3.703 2 3 cbr 500 ------- 0 1.0 4.0 635 667
r 3.708 2 3 cbr 500 ------- 0 1.0 4.0 636 668
r 3.713 2 3 cbr 500 ------- 0 1.0 4.0 637 669
r 3.718 2 3 cbr 500 ------- 0 1.0 4.0 638 670
r 3.723 2 3 cbr 500 ------- 0 1.0 4.0 639 671
r 3.728 2 3 cbr 500 ------- 0 1.0 4.0 640 672
r 3.733 2 3 cbr 500 ------- 0 1.0 4.0 641 673
r 3.738 2 3 cbr 500 ------- 0 1.0 4.0 642 674
r 3.743 2 3 cbr 500 ------- 0 1.0 4.0 643 675
r 3.748 2 3 cbr 500 ------- 0 1.0 4.0 644 676
r 3.753 2 3 cbr 500 ------- 0 1.0 4.0 645 677
r 3.758 2 3 cbr 500 ------- 0 1.0 4.0 646 678
r 3.763 2 3 cbr 500 ------- 0 1.0 4.0 647 679
r 3.768 2 3 cbr 500 ------- 0 1.0 4.0 648 680
r 3.773 2 3 cbr 500 ------- 0 1.0 4.0 649 681
r 3.778 2 3 cbr 500 ------- 0 1.0 4.0 650 682