r 0.027182 1 2 rtProtoDV 5 ------- 0 1.2 2.1 -1 4
r 0.047302 1 2 rtProtoDV 5 ------- 0 1.2 2.1 -1 16
r 0.28798 1 2 rtProtoDV 5 ------- 0 1.2 2.1 -1 23
r 0.514 1 2 cbr 500 ------- 0 1.0 4.0 0 24
r 0.519 1 2 cbr 500 ------- 0 1.0 4.0 1 25
r 0.524 1 2 cbr 500 ------- 0 1.0 4.0 2 26
r 0.529 1 2 cbr 500 ------- 0 1.0 4.0 3 27
r 0.534 1 2 cbr 500 ------- 0 1.0 4.0 4 28
r 0.539 1 2 cbr 500 ------- 0 1.0 4.0 5 29
r 0.544 1 2 cbr 500 ------- 0 1.0 4.0 6 30
r 0.549 1 2 cbr 500 ------- 0 1.0 4.0 7 31
r 0.554 1 2 cbr 500 ------- 0 1.0 4.0 8 32
r 0.559 1 2 cbr 500 ------- 0 1.0 4.0 9 33
r 0.564 1 2 cbr 500 ------- 0 1.0 4.0 10 34
r 0.569 1 2 cbr 500 ------- 0 1.0 4.0 11 35
r 0.574 1 2 cbr 500 ------- 0 1.0 4.0 12 36
r 0.579 1 2 cbr 500 ------- 0 1.0 4.0 13 37
r 0.584 1 2 cbr 500 ------- 0 1.0 4.0 14 38
r 0.589 1 2 cbr 500 ------- 0 1.0 4.0 15 39
r 0.594 1 2 cbr 500 ------- 0 1.0 4.0 16 40
r 0.599 1 2 cbr 500 ------- 0 1.0 4.0 17 41
r 0.604 1 2 cbr 500 ------- 0 1.0 4.0 18 42
r 0.609 1 2 cbr 500 ------- 0 1.0 4.0 19 43
r 0.614 1 2 cbr 500 ------- 0 1.0 4.0 20 44
r 0.619 1 2 cbr 500 ------- 0 1.0 4.0 21 45
r 0.624 1 2 cbr 500 ------- 0 1.0 4.0 22 46
r 0.629 1 2 cbr 500 ------- 0 1.0 4.0 23 47
r 0.634 1 2 cbr 500 ------- 0 1.0 4.0 24 48
r 0.639 1 2 cbr 500 ------- 0 1.0 4.0 25 49
r 0.644 1 2 cbr 500 ------- 0 1.0 4.0 26 50
r 0.649 1 2 cbr 500 ------- 0 1.0 4.0 27 51
r 0.654 1 2 cbr 500 ------- 0 1.0 4.0 28 52
r 0.659 1 2 cbr 500 ------- 0 1.0 4.0 29 53
r 0.664 1 2 cbr 500 ------- 0 1.0 4.0 30 54
r 0.669 1 2 cbr 500 ------- 0 1.0 4.0 31 55
r 0.674 1 2 cbr 500 ------- 0 1.0 4.0 32 56
r 0.679 1 2 cbr 500 ------- 0 1.0 4.0 33 57
r 0.684 1 2 cbr 500 ------- 0 1.0 4.0 34 58
r 0.689 1 2 cbr 500 ------- 0 1.0 4.0 35 59
r 0.694 1 2 cbr 500 ------- 0 1.0 4.0 36 60
r 0.699 1 2 cbr 500 ------- 0 1.0 4.0 37 61
r 0.704 1 2 cbr 500 ------- 0 1.0 4.0 38 62
r 0.709 1 2 cbr 500 ------- 0 1.0 4.0 39 63
r 0.714 1 2 cbr 500 ------- 0 1.0 4.0 40 64
r 0.719 1 2 cbr 500 ------- 0 1.0 4.0 41 65
r 0.724 1 2 cbr 500 ------- 0 1.0 4.0 42 66
r 0.729 1 2 cbr 500 ------- 0 1.0 4.0 43 67
r 0.734 1 2 cbr 500 ------- 0 1.0 4.0 44 68
r 0.739 1 2 cbr 500 ------- 0 1.0 4.0 45 69
r 0.744 1 2 cbr 500 ------- 0 1.0 4.0 46 70
r 0.749 1 2 cbr 500 ------- 0 1.0 4.0 47 71
r 0.754 1 2 cbr 500 ------- 0 1.0 4.0 48 72
r 0.759 1 2 cbr 500 ------- 0 1.0 4.0 49 73
r 0.764 1 2 cbr 500 ------- 0 1.0 4.0 50 74
r 0.769 1 2 cbr 500 ------- 0 1.0 4.0 51 75
r 0.774 1 2 cbr 500 ------- 0 1.0 4.0 52 76
r 0.779 1 2 cbr 500 ------- 0 1.0 4.0 53 77
r 0.784 1 2 cbr 500 ------- 0 1.0 4.0 54 78
r 0.789 1 2 cbr 500 ------- 0 1.0 4.0 55 79
r 0.794 1 2 cbr 500 ------- 0 1.0 4.0 56 80
r 0.799 1 2 cbr 500 ------- 0 1.0 4.0 57 81
r 0.804 1 2 cbr 500 ------- 0 1.0 4.0 58 82
r 0.809 1 2 cbr 500 ------- 0 1.0 4.0 59 83
r 0.814 1 2 cbr 500 ------- 0 1.0 4.0 60 84
r 0.819 1 2 cbr 500 ------- 0 1.0 4.0 61 85
r 0.824 1 2 cbr 500 ------- 0 1.0 4.0 62 86
r 0.829 1 2 cbr 500 ------- 0 1.0 4.0 63 87
r 0.834 1 2 cbr 500 ------- 0 1.0 4.0 64 88
r 0.839 1 2 cbr 500 ------- 0 1.0 4.0 65 89
r 0.844 1 2 cbr 500 ------- 0 1.0 4.0 66 90
r 0.849 1 2 cbr 500 ------- 0 1.0 4.0 67 91
r 0.854 1 2 cbr 500 ------- 0 1.0 4.0 68 92
r 0.859 1 2 cbr 500 ------- 0 1.0 4.0 69 93
r 0.864 1 2 cbr 500 ------- 0 1.0 4.0 70 94
r 0.869 1 2 cbr 500 ------- 0 1.0 4.0 71 95
r 0.874 1 2 cbr 500 ------- 0 1.0 4.0 72 96
r 0.879 1 2 cbr 500 ------- 0 1.0 4.0 73 97
r 0.884 1 2 cbr 500 ------- 0 1.0 4.0 74 98
r 0.889 1 2 cbr 500 ------- 0 1.0 4.0 75 99
r 0.894 1 2 cbr 500 ------- 0 1.0 4.0 76 100
r 0.899 1 2 cbr 500 ------- 0 1.0 4.0 77 101
r 0.904 1 2 cbr 500 ------- 0 1.0 4.0 78 102
r 0.909 1 2 cbr 500 ------- 0 1.0 4.0 79 103
r 0.914 1 2 cbr 500 ------- 0 1.0 4.0 80 104
r 0.919 1 2 cbr 500 ------- 0 1.0 4.0 81 105
r 0.924 1 2 cbr 500 ------- 0 1.0 4.0 82 106
r 0.929 1 2 cbr 500 ------- 0 1.0 4.0 83 107
r 0.934 1 2 cbr 500 ------- 0 1.0 4.0 84 108
r 0.939 1 2 cbr 500 ------- 0 1.0 4.0 85 109
r 0.944 1 2 cbr 500 ------- 0 1.0 4.0 86 110
r 0.949 1 2 cbr 500 ------- 0 1.0 4.0 87 111
r 0.954 1 2 cbr 500 ------- 0 1.0 4.0 88 112
r 0.959 1 2 cbr 500 ------- 0 1.0 4.0 89 113
r 0.964 1 2 cbr 500 ------- 0 1.0 4.0 90 114
r 0.969 1 2 cbr 500 ------- 0 1.0 4.0 91 115
r 0.974 1 2 cbr 500 ------- 0 1.0 4.0 92 116
r 0.979 1 2 cbr 500 ------- 0 1.0 4.0 93 117
r 0.984 1 2 cbr 500 ------- 0 1.0 4.0 94 118
r 0.989 1 2 cbr 500 ------- 0 1.0 4.0 95 119
r 0.994 1 2 cbr 500 ------- 0 1.0 4.0 96 120
r 0.999 1 2 cbr 500 ------- 0 1.0 4.0 97 121
r 1.004 1 2 cbr 500 ------- 0 1.0 4.0 98 122
r 1.009 1 2 cbr 500 ------- 0 1.0 4.0 99 123
r 1.014 1 2 cbr 500 ------- 0 1.0 4.0 100 124
r 1.019 1 2 cbr 500 ------- 0 1.0 4.0 101 125
r 1.024 1 2 cbr 500 ------- 0 1.0 4.0 102 126
r 1.029 1 2 cbr 500 ------- 0 1.0 4.0 103 127
r 1.034 1 2 cbr 500 ------- 0 1.0 4.0 104 128
r 1.039 1 2 cbr 500 ------- 0 1.0 4.0 105 129
r 1.044 1 2 cbr 500 ------- 0 1.0 4.0 106 130
r 1.049 1 2 cbr 500 ------- 0 1.0 4.0 107 131
r 1.054 1 2 cbr 500 ------- 0 1.0 4.0 108 132
r 1.059 1 2 cbr 500 ------- 0 1.0 4.0 109 133
r 1.064 1 2 cbr 500 ------- 0 1.0 4.0 110 134
r 1.069 1 2 cbr 500 ------- 0 1.0 4.0 111 135
r 1.074 1 2 cbr 500 ------- 0 1.0 4.0 112 136
r 1.079 1 2 cbr 500 ------- 0 1.0 4.0 113 137
r 1.084 1 2 cbr 500 ------- 0 1.0 4.0 114 138
r 1.089 1 2 cbr 500 ------- 0 1.0 4.0 115 139
r 1.094 1 2 cbr 500 ------- 0 1.0 4.0 116 140
r 1.099 1 2 cbr 500 ------- 0 1.0 4.0 117 141
r 1.104 1 2 cbr 500 ------- 0 1.0 4.0 118 142
r 1.109 1 2 cbr 500 ------- 0 1.0 4.0 119 143
r 1.114 1 2 cbr 500 ------- 0 1.0 4.0 120 144
r 1.119 1 2 cbr 500 ------- 0 1.0 4.0 121 145
r 1.124 1 2 cbr 500 ------- 0 1.0 4.0 122 146
r 1.129 1 2 cbr 500 ------- 0 1.0 4.0 123 147
r 1.134 1 2 cbr 500 ------- 0 1.0 4.0 124 148
r 1.139 1 2 cbr 500 ------- 0 1.0 4.0 125 149
r 1.144 1 2 cbr 500 ------- 0 1.0 4.0 126 150
r 1.149 1 2 cbr 500 ------- 0 1.0 4.0 127 151
r 1.154 1 2 cbr 500 ------- 0 1.0 4.0 128 152
r 1.159 1 2 cbr 500 ------- 0 1.0 4.0 129 153
r 1.164 1 2 cbr 500 ------- 0 1.0 4.0 130 154
r 1.169 1 2 cbr 500 ------- 0 1.0 4.0 131 155
r 1.174 1 2 cbr 500 ------- 0 1.0 4.0 132 156
r 1.179 1 2 cbr 500 ------- 0 1.0 4.0 133 157
r 1.184 1 2 cbr 500 ------- 0 1.0 4.0 134 158
r 1.189 1 2 cbr 500 ------- 0 1.0 4.0 135 159
r 1.194 1 2 cbr 500 ------- 0 1.0 4.0 136 160
r 1.199 1 2 cbr 500 ------- 0 1.0 4.0 137 161
r 1.204 1 2 cbr 500 ------- 0 1.0 4.0 138 162
r 1.209 1 2 cbr 500 ------- 0 1.0 4.0 139 163
r 1.214 1 2 cbr 500 ------- 0 1.0 4.0 140 164
r 1.219 1 2 cbr 500 ------- 0 1.0 4.0 141 165
r 1.224 1 2 cbr 500 ------- 0 1.0 4.0 142 166
r 1.229 1 2 cbr 500 ------- 0 1.0 4.0 143 167
r 1.234 1 2 cbr 500 ------- 0 1.0 4.0 144 168
r 1.239 1 2 cbr 500 ------- 0 1.0 4.0 145 169
r 1.244 1 2 cbr 500 ------- 0 1.0 4.0 146 170
r 1.249 1 2 cbr 500 ------- 0 1.0 4.0 147 171
r 1.254 1 2 cbr 500 ------- 0 1.0 4.0 148 172
r 1.259 1 2 cbr 500 ------- 0 1.0 4.0 149 173
r 1.264 1 2 cbr 500 ------- 0 1.0 4.0 150 174
r 1.269 1 2 cbr 500 ------- 0 1.0 4.0 151 175
r 1.274 1 2 cbr 500 ------- 0 1.0 4.0 152 176
r 1.279 1 2 cbr 500 ------- 0 1.0 4.0 153 177
r 1.284 1 2 cbr 500 ------- 0 1.0 4.0 154 178
r 1.289 1 2 cbr 500 ------- 0 1.0 4.0 155 179
r 1.294 1 2 cbr 500 ------- 0 1.0 4.0 156 180
r 1.299 1 2 cbr 500 ------- 0 1.0 4.0 157 181
r 1.304 1 2 cbr 500 ------- 0 1.0 4.0 158 182
r 1.309 1 2 cbr 500 ------- 0 1.0 4.0 159 183
r 1.314 1 2 cbr 500 ------- 0 1.0 4.0 160 184
r 1.319 1 2 cbr 500 ------- 0 1.0 4.0 161 185
r 1.324 1 2 cbr 500 ------- 0 1.0 4.0 162 186
r 1.329 1 2 cbr 500 ------- 0 1.0 4.0 163 187
r 1.334 1 2 cbr 500 ------- 0 1.0 4.0 164 188
r 1.339 1 2 cbr 500 ------- 0 1.0 4.0 165 189
r 1.344 1 2 cbr 500 ------- 0 1.0 4.0 166 190
r 1.349 1 2 cbr 500 ------- 0 1.0 4.0 167 191
r 1.354 1 2 cbr 500 ------- 0 1.0 4.0 168 192
r 1.359 1 2 cbr 500 ------- 0 1.0 4.0 169 193
r 1.364 1 2 cbr 500 ------- 0 1.0 4.0 170 194
r 1.369 1 2 cbr 500 ------- 0 1.0 4.0 171 195
r 1.374 1 2 cbr 500 ------- 0 1.0 4.0 172 196
r 1.379 1 2 cbr 500 ------- 0 1.0 4.0 173 197
r 1.384 1 2 cbr 500 ------- 0 1.0 4.0 174 198
r 1.389 1 2 cbr 500 ------- 0 1.0 4.0 175 199
r 1.394 1 2 cbr 500 ------- 0 1.0 4.0 176 200
r 1.399 1 2 cbr 500 ------- 0 1.0 4.0 177 201
r 1.404 1 2 cbr 500 ------- 0 1.0 4.0 178 202
r 1.409 1 2 cbr 500 ------- 0 1.0 4.0 179 203
r 1.414 1 2 cbr 500 ------- 0 1.0 4.0 180 204
r 1.419 1 2 cbr 500 ------- 0 1.0 4.0 181 205
r 1.424 1 2 cbr 500 ------- 0 1.0 4.0 182 206
r 1.429 1 2 cbr 500 ------- 0 1.0 4.0 183 207
r 1.434 1 2 cbr 500 ------- 0 1.0 4.0 184 208
r 1.439 1 2 cbr 500 ------- 0 1.0 4.0 185 209
r 1.444 1 2 cbr 500 ------- 0 1.0 4.0 186 210
r 1.449 1 2 cbr 500 ------- 0 1.0 4.0 187 211
r 1.454 1 2 cbr 500 ------- 0 1.0 4.0 188 212
r 1.459 1 2 cbr 500 ------- 0 1.0 4.0 189 213
r 1.464 1 2 cbr 500 ------- 0 1.0 4.0 190 214
r 1.469 1 2 cbr 500 ------- 0 1.0 4.0 191 215
r 1.474 1 2 cbr 500 ------- 0 1.0 4.0 192 216
r 1.479 1 2 cbr 500 ------- 0 1.0 4.0 193 217
r 1.484 1 2 cbr 500 ------- 0 1.0 4.0 194 218
r 1.489 1 2 cbr 500 ------- 0 1.0 4.0 195 219
r 1.494 1 2 cbr 500 ------- 0 1.0 4.0 196 220
r 1.499 1 2 cbr 500 ------- 0 1.0 4.0 197 221
r 1.504 1 2 cbr 500 ------- 0 1.0 4.0 198 222
r 1.509 1 2 cbr 500 ------- 0 1.0 4.0 199 223
r 1.514 1 2 cbr 500 ------- 0 1.0 4.0 200 224
r 1.519 1 2 cbr 500 ------- 0 1.0 4.0 201 225
r 1.524 1 2 cbr 500 ------- 0 1.0 4.0 202 226
r 1.529 1 2 cbr 500 ------- 0 1.0 4.0 203 227
r 1.534 1 2 cbr 500 ------- 0 1.0 4.0 204 228
r 1.539 1 2 cbr 500 ------- 0 1.0 4.0 205 229
r 1.544 1 2 cbr 500 ------- 0 1.0 4.0 206 230
r 1.549 1 2 cbr 500 ------- 0 1.0 4.0 207 231
r 1.554 1 2 cbr 500 ------- 0 1.0 4.0 208 232
r 1.559 1 2 cbr 500 ------- 0 1.0 4.0 209 233
r 1.564 1 2 cbr 500 ------- 0 1.0 4.0 210 234
r 1.569 1 2 cbr 500 ------- 0 1.0 4.0 211 235
r 1.574 1 2 cbr 500 ------- 0 1.0 4.0 212 236
r 1.579 1 2 cbr 500 ------- 0 1.0 4.0 213 237
r 1.584 1 2 cbr 500 ------- 0 1.0 4.0 214 238
r 1.589 1 2 cbr 500 ------- 0 1.0 4.0 215 239
r 1.594 1 2 cbr 500 ------- 0 1.0 4.0 216 240
r 1.599 1 2 cbr 500 ------- 0 1.0 4.0 217 241
r 1.604 1 2 cbr 500 ------- 0 1.0 4.0 218 242
r 1.609 1 2 cbr 500 ------- 0 1.0 4.0 219 243
r 1.614 1 2 cbr 500 ------- 0 1.0 4.0 220 244
r 1.619 1 2 cbr 500 ------- 0 1.0 4.0 221 245
r 1.624 1 2 cbr 500 ------- 0 1.0 4.0 222 246
r 1.629 1 2 cbr 500 ------- 0 1.0 4.0 223 247
r 1.634 1 2 cbr 500 ------- 0 1.0 4.0 224 248
r 1.639 1 2 cbr 500 ------- 0 1.0 4.0 225 249
r 1.644 1 2 cbr 500 ------- 0 1.0 4.0 226 250
r 1.649 1 2 cbr 500 ------- 0 1.0 4.0 227 251
r 1.654 1 2 cbr 500 ------- 0 1.0 4.0 228 252
r 1.659 1 2 cbr 500 ------- 0 1.0 4.0 229 253
r 1.664 1 2 cbr 500 ------- 0 1.0 4.0 230 254
r 1.669 1 2 cbr 500 ------- 0 1.0 4.0 231 255
r 1.674 1 2 cbr 500 ------- 0 1.0 4.0 232 256
r 1.679 1 2 cbr 500 ------- 0 1.0 4.0 233 257
r 1.684 1 2 cbr 500 ------- 0 1.0 4.0 234 258
r 1.689 1 2 cbr 500 ------- 0 1.0 4.0 235 259
r 1.694 1 2 cbr 500 ------- 0 1.0 4.0 236 260
r 1.699 1 2 cbr 500 ------- 0 1.0 4.0 237 261
r 1.704 1 2 cbr 500 ------- 0 1.0 4.0 238 262
r 1.709 1 2 cbr 500 ------- 0 1.0 4.0 239 263
r 1.714 1 2 cbr 500 ------- 0 1.0 4.0 240 264
r 1.719 1 2 cbr 500 ------- 0 1.0 4.0 241 265
r 1.724 1 2 cbr 500 ------- 0 1.0 4.0 242 266
r 1.729 1 2 cbr 500 ------- 0 1.0 4.0 243 267
r 1.734 1 2 cbr 500 ------- 0 1.0 4.0 244 268
r 1.739 1 2 cbr 500 ------- 0 1.0 4.0 245 269
r 1.744 1 2 cbr 500 ------- 0 1.0 4.0 246 270
r 1.749 1 2 cbr 500 ------- 0 1.0 4.0 247 271
r 1.754 1 2 cbr 500 ------- 0 1.0 4.0 248 272
r 1.759 1 2 cbr 500 ------- 0 1.0 4.0 249 273
r 1.764 1 2 cbr 500 ------- 0 1.0 4.0 250 274
r 1.769 1 2 cbr 500 ------- 0 1.0 4.0 251 275
r 1.774 1 2 cbr 500 ------- 0 1.0 4.0 252 276
r 1.779 1 2 cbr 500 ------- 0 1.0 4.0 253 277
r 1.784 1 2 cbr 500 ------- 0 1.0 4.0 254 278
r 1.789 1 2 cbr 500 ------- 0 1.0 4.0 255 279
r 1.794 1 2 cbr 500 ------- 0 1.0 4.0 256 280
r 1.799 1 2 cbr 500 ------- 0 1.0 4.0 257 281
r 1.804 1 2 cbr 500 ------- 0 1.0 4.0 258 282
r 1.809 1 2 cbr 500 ------- 0 1.0 4.0 259 283
r 1.814 1 2 cbr 500 ------- 0 1.0 4.0 260 284
r 1.819 1 2 cbr 500 ------- 0 1.0 4.0 261 285
r 1.824 1 2 cbr 500 ------- 0 1.0 4.0 262 286
r 1.829 1 2 cbr 500 ------- 0 1.0 4.0 263 287
r 1.834 1 2 cbr 500 ------- 0 1.0 4.0 264 288
r 1.839 1 2 cbr 500 ------- 0 1.0 4.0 265 289
r 1.844 1 2 cbr 500 ------- 0 1.0 4.0 266 290
r 1.849 1 2 cbr 500 ------- 0 1.0 4.0 267 291
r 1.854 1 2 cbr 500 ------- 0 1.0 4.0 268 292
r 1.859 1 2 cbr 500 ------- 0 1.0 4.0 269 293
r 1.864 1 2 cbr 500 ------- 0 1.0 4.0 270 294
r 1.869 1 2 cbr 500 ------- 0 1.0 4.0 271 295
r 1.874 1 2 cbr 500 ------- 0 1.0 4.0 272 296
r 1.879 1 2 cbr 500 ------- 0 1.0 4.0 273 297
r 1.884 1 2 cbr 500 ------- 0 1.0 4.0 274 298
r 1.889 1 2 cbr 500 ------- 0 1.0 4.0 275 299
r 1.894 1 2 cbr 500 ------- 0 1.0 4.0 276 300
r 1.899 1 2 cbr 500 ------- 0 1.0 4.0 277 301
r 1.904 1 2 cbr 500 ------- 0 1.0 4.0 278 302
r 1.909 1 2 cbr 500 ------- 0 1.0 4.0 279 303
r 1.914 1 2 cbr 500 ------- 0 1.0 4.0 280 304
r 1.919 1 2 cbr 500 ------- 0 1.0 4.0 281 305
r 1.924 1 2 cbr 500 ------- 0 1.0 4.0 282 306
r 1.929 1 2 cbr 500 ------- 0 1.0 4.0 283 307
r 1.934 1 2 cbr 500 ------- 0 1.0 4.0 284 308
r 1.939 1 2 cbr 500 ------- 0 1.0 4.0 285 309
r 1.944 1 2 cbr 500 ------- 0 1.0 4.0 286 310
r 1.949 1 2 cbr 500 ------- 0 1.0 4.0 287 313
r 1.954 1 2 cbr 500 ------- 0 1.0 4.0 288 314
r 1.959 1 2 cbr 500 ------- 0 1.0 4.0 289 315
r 1.964 1 2 cbr 500 ------- 0 1.0 4.0 290 316
r 1.969 1 2 cbr 500 ------- 0 1.0 4.0 291 317
r 1.974 1 2 cbr 500 ------- 0 1.0 4.0 292 318
r 1.979 1 2 cbr 500 ------- 0 1.0 4.0 293 319
r 1.984 1 2 cbr 500 ------- 0 1.0 4.0 294 320
r 1.989 1 2 cbr 500 ------- 0 1.0 4.0 295 321
r 1.994 1 2 cbr 500 ------- 0 1.0 4.0 296 322
r 1.999 1 2 cbr 500 ------- 0 1.0 4.0 297 323
r 2.004 1 2 cbr 500 ------- 0 1.0 4.0 298 324
r 2.009 1 2 cbr 500 ------- 0 1.0 4.0 299 325
r 2.014 1 2 cbr 500 ------- 0 1.0 4.0 300 326
r 2.019 1 2 cbr 500 ------- 0 1.0 4.0 301 327
r 2.024 1 2 cbr 500 ------- 0 1.0 4.0 302 328
r 2.029 1 2 cbr 500 ------- 0 1.0 4.0 303 329
r 2.034 1 2 cbr 500 ------- 0 1.0 4.0 304 330
r 2.039 1 2 cbr 500 ------- 0 1.0 4.0 305 331
r 2.044 1 2 cbr 500 ------- 0 1.0 4.0 306 332
r 2.049 1 2 cbr 500 ------- 0 1.0 4.0 307 333
r 2.054 1 2 cbr 500 ------- 0 1.0 4.0 308 334
r 2.059 1 2 cbr 500 ------- 0 1.0 4.0 309 335
r 2.064 1 2 cbr 500 ------- 0 1.0 4.0 310 336
r 2.069 1 2 cbr 500 ------- 0 1.0 4.0 311 337
r 2.074 1 2 cbr 500 ------- 0 1.0 4.0 312 338
r 2.079 1 2 cbr 500 ------- 0 1.0 4.0 313 339
r 2.084 1 2 cbr 500 ------- 0 1.0 4.0 314 340
r 2.089 1 2 cbr 500 ------- 0 1.0 4.0 315 341
r 2.094 1 2 cbr 500 ------- 0 1.0 4.0 316 342
r 2.099 1 2 cbr 500 ------- 0 1.0 4.0 317 343
r 2.104 1 2 cbr 500 ------- 0 1.0 4.0 318 344
r 2.109 1 2 cbr 500 ------- 0 1.0 4.0 319 345
r 2.114 1 2 cbr 500 ------- 0 1.0 4.0 320 346
r 2.119 1 2 cbr 500 ------- 0 1.0 4.0 321 347
r 2.124 1 2 cbr 500 ------- 0 1.0 4.0 322 348
r 2.129 1 2 cbr 500 ------- 0 1.0 4.0 323 350
r 2.134 1 2 cbr 500 ------- 0 1.0 4.0 324 352
r 2.139 1 2 cbr 500 ------- 0 1.0 4.0 325 353
r 2.144 1 2 cbr 500 ------- 0 1.0 4.0 326 354
r 2.149 1 2 cbr 500 ------- 0 1.0 4.0 327 355
r 2.154 1 2 cbr 500 ------- 0 1.0 4.0 328 356
r 2.159 1 2 cbr 500 ------- 0 1.0 4.0 329 357
r 2.164 1 2 cbr 500 ------- 0 1.0 4.0 330 358
r 2.169 1 2 cbr 500 ------- 0 1.0 4.0 331 359
r 2.174 1 2 cbr 500 ------- 0 1.0 4.0 332 360
r 2.179 1 2 cbr 500 ------- 0 1.0 4.0 333 361
r 2.184 1 2 cbr 500 ------- 0 1.0 4.0 334 362
r 2.189 1 2 cbr 500 ------- 0 1.0 4.0 335 365
r 2.194 1 2 cbr 500 ------- 0 1.0 4.0 336 366
r 2.199 1 2 cbr 500 ------- 0 1.0 4.0 337 367
r 2.204 1 2 cbr 500 ------- 0 1.0 4.0 338 368
r 2.209 1 2 cbr 500 ------- 0 1.0 4.0 339 369
r 2.214 1 2 cbr 500 ------- 0 1.0 4.0 340 370
r 2.219 1 2 cbr 500 ------- 0 1.0 4.0 341 371
r 2.224 1 2 cbr 500 ------- 0 1.0 4.0 342 372
r 2.229 1 2 cbr 500 ------- 0 1.0 4.0 343 373
r 2.234 1 2 cbr 500 ------- 0 1.0 4.0 344 374
r 2.239 1 2 cbr 500 ------- 0 1.0 4.0 345 375
r 2.244 1 2 cbr 500 ------- 0 1.0 4.0 346 376
r 2.249 1 2 cbr 500 ------- 0 1.0 4.0 347 377
r 2.254 1 2 cbr 500 ------- 0 1.0 4.0 348 378
r 2.259 1 2 cbr 500 ------- 0 1.0 4.0 349 379
r 2.264 1 2 cbr 500 ------- 0 1.0 4.0 350 380
r 2.269 1 2 cbr 500 ------- 0 1.0 4.0 351 381
r 2.274 1 2 cbr 500 ------- 0 1.0 4.0 352 382
r 2.279 1 2 cbr 500 ------- 0 1.0 4.0 353 383
r 2.284 1 2 cbr 500 ------- 0 1.0 4.0 354 384
r 2.289 1 2 cbr 500 ------- 0 1.0 4.0 355 385
r 2.294 1 2 cbr 500 ------- 0 1.0 4.0 356 386
r 2.299 1 2 cbr 500 ------- 0 1.0 4.0 357 387
r 2.304 1 2 cbr 500 ------- 0 1.0 4.0 358 388
r 2.309 1 2 cbr 500 ------- 0 1.0 4.0 359 389
r 2.314 1 2 cbr 500 ------- 0 1.0 4.0 360 390
r 2.319 1 2 cbr 500 ------- 0 1.0 4.0 361 391
r 2.324 1 2 cbr 500 ------- 0 1.0 4.0 362 392
r 2.329 1 2 cbr 500 ------- 0 1.0 4.0 363 393
r 2.334 1 2 cbr 500 ------- 0 1.0 4.0 364 394
r 2.339 1 2 cbr 500 ------- 0 1.0 4.0 365 395
r 2.344 1 2 cbr 500 ------- 0 1.0 4.0 366 396
r 2.34404 1 2 rtProtoDV 5 ------- 0 1.2 2.1 -1 398
r 2.349 1 2 cbr 500 ------- 0 1.0 4.0 367 399
r 2.354 1 2 cbr 500 ------- 0 1.0 4.0 368 400
r 2.359 1 2 cbr 500 ------- 0 1.0 4.0 369 401
r 2.364 1 2 cbr 500 ------- 0 1.0 4.0 370 402
r 2.369 1 2 cbr 500 ------- 0 1.0 4.0 371 403
r 2.374 1 2 cbr 500 ------- 0 1.0 4.0 372 404
r 2.379 1 2 cbr 500 ------- 0 1.0 4.0 373 405
r 2.384 1 2 cbr 500 ------- 0 1.0 4.0 374 406
r 2.389 1 2 cbr 500 ------- 0 1.0 4.0 375 407
r 2.394 1 2 cbr 500 ------- 0 1.0 4.0 376 408
r 2.399 1 2 cbr 500 ------- 0 1.0 4.0 377 409
r 2.404 1 2 cbr 500 ------- 0 1.0 4.0 378 410
r 2.409 1 2 cbr 500 ------- 0 1.0 4.0 379 411
r 2.414 1 2 cbr 500 ------- 0 1.0 4.0 380 412
r 2.419 1 2 cbr 500 ------- 0 1.0 4.0 381 413
r 2.424 1 2 cbr 500 ------- 0 1.0 4.0 382 414
r 2.429 1 2 cbr 500 ------- 0 1.0 4.0 383 415
r 2.434 1 2 cbr 500 ------- 0 1.0 4.0 384 416
r 2.439 1 2 cbr 500 ------- 0 1.0 4.0 385 417
r 2.444 1 2 cbr 500 ------- 0 1.0 4.0 386 418
r 2.449 1 2 cbr 500 ------- 0 1.0 4.0 387 419
r 2.454 1 2 cbr 500 ------- 0 1.0 4.0 388 420
r 2.459 1 2 cbr 500 ------- 0 1.0 4.0 389 421
r 2.464 1 2 cbr 500 ------- 0 1.0 4.0 390 422
r 2.469 1 2 cbr 500 ------- 0 1.0 4.0 391 423
r 2.474 1 2 cbr 500 ------- 0 1.0 4.0 392 424
r 2.479 1 2 cbr 500 ------- 0 1.0 4.0 393 425
r 2.484 1 2 cbr 500 ------- 0 1.0 4.0 394 426
r 2.489 1 2 cbr 500 ------- 0 1.0 4.0 395 427
r 2.494 1 2 cbr 500 ------- 0 1.0 4.0 396 428
r 2.499 1 2 cbr 500 ------- 0 1.0 4.0 397 429
r 2.504 1 2 cbr 500 ------- 0 1.0 4.0 398 430
r 2.509 1 2 cbr 500 ------- 0 1.0 4.0 399 431
r 2.514 1 2 cbr 500 ------- 0 1.0 4.0 400 432
r 2.519 1 2 cbr 500 ------- 0 1.0 4.0 401 433
r 2.524 1 2 cbr 500 ------- 0 1.0 4.0 402 434
r 2.529 1 2 cbr 500 ------- 0 1.0 4.0 403 435
r 2.534 1 2 cbr 500 ------- 0 1.0 4.0 404 436
r 2.539 1 2 cbr 500 ------- 0 1.0 4.0 405 437
r 2.544 1 2 cbr 500 ------- 0 1.0 4.0 406 438
r 2.549 1 2 cbr 500 ------- 0 1.0 4.0 407 439
r 2.554 1 2 cbr 500 ------- 0 1.0 4.0 408 440
r 2.559 1 2 cbr 500 ------- 0 1.0 4.0 409 441
r 2.564 1 2 cbr 500 ------- 0 1.0 4.0 410 442
r 2.569 1 2 cbr 500 ------- 0 1.0 4.0 411 443
r 2.574 1 2 cbr 500 ------- 0 1.0 4.0 412 444
r 2.579 1 2 cbr 500 ------- 0 1.0 4.0 413 445
r 2.584 1 2 cbr 500 ------- 0 1.0 4.0 414 446
r 2.589 1 2 cbr 500 ------- 0 1.0 4.0 415 447
r 2.594 1 2 cbr 500 ------- 0 1.0 4.0 416 448
r 2.599 1 2 cbr 500 ------- 0 1.0 4.0 417 449
r 2.604 1 2 cbr 500 ------- 0 1.0 4.0 418 450
r 2.609 1 2 cbr 500 ------- 0 1.0 4.0 419 451
r 2.614 1 2 cbr 500 ------- 0 1.0 4.0 420 452
r 2.619 1 2 cbr 500 ------- 0 1.0 4.0 421 453
r 2.624 1 2 cbr 500 ------- 0 1.0 4.0 422 454
r 2.629 1 2 cbr 500 ------- 0 1.0 4.0 423 455
r 2.634 1 2 cbr 500 ------- 0 1.0 4.0 424 456
r 2.639 1 2 cbr 500 ------- 0 1.0 4.0 425 457
r 2.644 1 2 cbr 500 ------- 0 1.0 4.0 426 458
r 2.649 1 2 cbr 500 ------- 0 1.0 4.0 427 459
r 2.654 1 2 cbr 500 ------- 0 1.0 4.0 428 460
r 2.659 1 2 cbr 500 ------- 0 1.0 4.0 429 461
r 2.664 1 2 cbr 500 ------- 0 1.0 4.0 430 462
r 2.669 1 2 cbr 500 ------- 0 1.0 4.0 431 463
r 2.674 1 2 cbr 500 ------- 0 1.0 4.0 432 464
r 2.679 1 2 cbr 500 ------- 0 1.0 4.0 433 465
r 2.684 1 2 cbr 500 ------- 0 1.0 4.0 434 466
r 2.689 1 2 cbr 500 ------- 0 1.0 4.0 435 467
r 2.694 1 2 cbr 500 ------- 0 1.0 4.0 436 468
r 2.699 1 2 cbr 500 ------- 0 1.0 4.0 437 469
r 2.704 1 2 cbr 500 ------- 0 1.0 4.0 438 470
r 2.709 1 2 cbr 500 ------- 0 1.0 4.0 439 471
r 2.714 1 2 cbr 500 ------- 0 1.0 4.0 440 472
r 2.719 1 2 cbr 500 ------- 0 1.0 4.0 441 473
r 2.724 1 2 cbr 500 ------- 0 1.0 4.0 442 474
r 2.729 1 2 cbr 500 ------- 0 1.0 4.0 443 475
r 2.734 1 2 cbr 500 ------- 0 1.0 4.0 444 476
r 2.739 1 2 cbr 500 ------- 0 1.0 4.0 445 477
r 2.744 1 2 cbr 500 ------- 0 1.0 4.0 446 478
r 2.749 1 2 cbr 500 ------- 0 1.0 4.0 447 479
r 2.754 1 2 cbr 500 ------- 0 1.0 4.0 448 480
r 2.759 1 2 cbr 500 ------- 0 1.0 4.0 449 481
r 2.764 1 2 cbr 500 ------- 0 1.0 4.0 450 482
r 2.769 1 2 cbr 500 ------- 0 1.0 4.0 451 483
r 2.774 1 2 cbr 500 ------- 0 1.0 4.0 452 484
r 2.779 1 2 cbr 500 ------- 0 1.0 4.0 453 485
r 2.784 1 2 cbr 500 ------- 0 1.0 4.0 454 486
r 2.789 1 2 cbr 500 ------- 0 1.0 4.0 455 487
r 2.794 1 2 cbr 500 ------- 0 1.0 4.0 456 488
r 2.799 1 2 cbr 500 ------- 0 1.0 4.0 457 489
r 2.804 1 2 cbr 500 ------- 0 1.0 4.0 458 490
r 2.809 1 2 cbr 500 ------- 0 1.0 4.0 459 491
r 2.814 1 2 cbr 500 ------- 0 1.0 4.0 460 492
r 2.819 1 2 cbr 500 ------- 0 1.0 4.0 461 493
r 2.824 1 2 cbr 500 ------- 0 1.0 4.0 462 494
r 2.829 1 2 cbr 500 ------- 0 1.0 4.0 463 495
r 2.834 1 2 cbr 500 ------- 0 1.0 4.0 464 496
r 2.839 1 2 cbr 500 ------- 0 1.0 4.0 465 497
r 2.844 1 2 cbr 500 ------- 0 1.0 4.0 466 498
r 2.849 1 2 cbr 500 ------- 0 1.0 4.0 467 499
r 2.854 1 2 cbr 500 ------- 0 1.0 4.0 468 500
r 2.859 1 2 cbr 500 ------- 0 1.0 4.0 469 501
r 2.864 1 2 cbr 500 ------- 0 1.0 4.0 470 502
r 2.869 1 2 cbr 500 ------- 0 1.0 4.0 471 503
r 2.874 1 2 cbr 500 ------- 0 1.0 4.0 472 504
r 2.879 1 2 cbr 500 ------- 0 1.0 4.0 473 505
r 2.884 1 2 cbr 500 ------- 0 1.0 4.0 474 506
r 2.889 1 2 cbr 500 ------- 0 1.0 4.0 475 507
r 2.894 1 2 cbr 500 ------- 0 1.0 4.0 476 508
r 2.899 1 2 cbr 500 ------- 0 1.0 4.0 477 509
r 2.904 1 2 cbr 500 ------- 0 1.0 4.0 478 510
r 2.909 1 2 cbr 500 ------- 0 1.0 4.0 479 511
r 2.914 1 2 cbr 500 ------- 0 1.0 4.0 480 512
r 2.919 1 2 cbr 500 ------- 0 1.0 4.0 481 513
r 2.924 1 2 cbr 500 ------- 0 1.0 4.0 482 514
r 2.929 1 2 cbr 500 ------- 0 1.0 4.0 483 515
r 2.934 1 2 cbr 500 ------- 0 1.0 4.0 484 516
r 2.939 1 2 cbr 500 ------- 0 1.0 4.0 485 517
r 2.944 1 2 cbr 500 ------- 0 1.0 4.0 486 518
r 2.949 1 2 cbr 500 ------- 0 1.0 4.0 487 519
r 2.954 1 2 cbr 500 ------- 0 1.0 4.0 488 520
r 2.959 1 2 cbr 500 ------- 0 1.0 4.0 489 521
r 2.964 1 2 cbr 500 ------- 0 1.0 4.0 490 522
r 2.969 1 2 cbr 500 ------- 0 1.0 4.0 491 523
r 2.974 1 2 cbr 500 ------- 0 1.0 4.0 492 524
r 2.979 1 2 cbr 500 ------- 0 1.0 4.0 493 525
r 2.984 1 2 cbr 500 ------- 0 1.0 4.0 494 526
r 2.989 1 2 cbr 500 ------- 0 1.0 4.0 495 527
r 2.994 1 2 cbr 500 ------- 0 1.0 4.0 496 528
r 2.999 1 2 cbr 500 ------- 0 1.0 4.0 497 529
r 3.004 1 2 cbr 500 ------- 0 1.0 4.0 498 530
r 3.009 1 2 cbr 500 ------- 0 1.0 4.0 499 531
r 3.014 1 2 cbr 500 ------- 0 1.0 4.0 500 532
r 3.019 1 2 cbr 500 ------- 0 1.0 4.0 501 533
r 3.024 1 2 cbr 500 ------- 0 1.0 4.0 502 534
r 3.029 1 2 cbr 500 ------- 0 1.0 4.0 503 535
r 3.034 1 2 cbr 500 ------- 0 1.0 4.0 504 536
r 3.039 1 2 cbr 500 ------- 0 1.0 4.0 505 537
r 3.044 1 2 cbr 500 ------- 0 1.0 4.0 506 538
r 3.049 1 2 cbr 500 ------- 0 1.0 4.0 507 539
r 3.054 1 2 cbr 500 ------- 0 1.0 4.0 508 540
r 3.059 1 2 cbr 500 ------- 0 1.0 4.0 509 541
r 3.064 1 2 cbr 500 ------- 0 1.0 4.0 510 542
r 3.069 1 2 cbr 500 ------- 0 1.0 4.0 511 543
r 3.074 1 2 cbr 500 ------- 0 1.0 4.0 512 544
r 3.079 1 2 cbr 500 ------- 0 1.0 4.0 513 545
r 3.084 1 2 cbr 500 ------- 0 1.0 4.0 514 546
r 3.089 1 2 cbr 500 ------- 0 1.0 4.0 515 547
r 3.094 1 2 cbr 500 ------- 0 1.0 4.0 516 548
r 3.099 1 2 cbr 500 ------- 0 1.0 4.0 517 549
r 3.104 1 2 cbr 500 ------- 0 1.0 4.0 518 550
r 3.109 1 2 cbr 500 ------- 0 1.0 4.0 519 551
r 3.114 1 2 cbr 500 ------- 0 1.0 4.0 520 552
r 3.119 1 2 cbr 500 ------- 0 1.0 4.0 521 553
r 3.124 1 2 cbr 500 ------- 0 1.0 4.0 522 554
r 3.129 1 2 cbr 500 ------- 0 1.0 4.0 523 555
r 3.134 1 2 cbr 500 ------- 0 1.0 4.0 524 556
r 3.139 1 2 cbr 500 ------- 0 1.0 4.0 525 557
r 3.144 1 2 cbr 500 ------- 0 1.0 4.0 526 558
r 3.149 1 2 cbr 500 ------- 0 1.0 4.0 527 559
r 3.154 1 2 cbr 500 ------- 0 1.0 4.0 528 560
r 3.159 1 2 cbr 500 ------- 0 1.0 4.0 529 561
r 3.164 1 2 cbr 500 ------- 0 1.0 4.0 530 562
r 3.169 1 2 cbr 500 ------- 0 1.0 4.0 531 563
r 3.174 1 2 cbr 500 ------- 0 1.0 4.0 532 564
r 3.179 1 2 cbr 500 ------- 0 1.0 4.0 533 565
r 3.184 1 2 cbr 500 ------- 0 1.0 4.0 534 566
r 3.189 1 2 cbr 500 ------- 0 1.0 4.0 535 567
r 3.194 1 2 cbr 500 ------- 0 1.0 4.0 536 568
r 3.199 1 2 cbr 500 ------- 0 1.0 4.0 537 569
r 3.204 1 2 cbr 500 ------- 0 1.0 4.0 538 570
r 3.209 1 2 cbr 500 ------- 0 1.0 4.0 539 571
r 3.214 1 2 cbr 500 ------- 0 1.0 4.0 540 572
r 3.219 1 2 cbr 500 ------- 0 1.0 4.0 541 573
r 3.224 1 2 cbr 500 ------- 0 1.0 4.0 542 574
r 3.229 1 2 cbr 500 ------- 0 1.0 4.0 543 575
r 3.234 1 2 cbr 500 ------- 0 1.0 4.0 544 576
r 3.239 1 2 cbr 500 ------- 0 1.0 4.0 545 577
r 3.244 1 2 cbr 500 ------- 0 1.0 4.0 546 578
r 3.249 1 2 cbr 500 ------- 0 1.0 4.0 547 579
r 3.254 1 2 cbr 500 ------- 0 1.0 4.0 548 580
r 3.259 1 2 cbr 500 ------- 0 1.0 4.0 549 581
r 3.264 1 2 cbr 500 ------- 0 1.0 4.0 550 582
r 3.269 1 2 cbr 500 ------- 0 1.0 4.0 551 583
r 3.274 1 2 cbr 500 ------- 0 1.0 4.0 552 584
r 3.279 1 2 cbr 500 ------- 0 1.0 4.0 553 585
r 3.284 1 2 cbr 500 ------- 0 1.0 4.0 554 586
r 3.289 1 2 cbr 500 ------- 0 1.0 4.0 555 587
r 3.294 1 2 cbr 500 ------- 0 1.0 4.0 556 588
r 3.299 1 2 cbr 500 ------- 0 1.0 4.0 557 589
r 3.304 1 2 cbr 500 ------- 0 1.0 4.0 558 590
r 3.309 1 2 cbr 500 ------- 0 1.0 4.0 559 591
r 3.314 1 2 cbr 500 ------- 0 1.0 4.0 560 592
r 3.319 1 2 cbr 500 ------- 0 1.0 4.0 561 593
r 3.324 1 2 cbr 500 ------- 0 1.0 4.0 562 594
r 3.329 1 2 cbr 500 ------- 0 1.0 4.0 563 595
r 3.334 1 2 cbr 500 ------- 0 1.0 4.0 564 596
r 3.339 1 2 cbr 500 ------- 0 1.0 4.0 565 597
r 3.344 1 2 cbr 500 ------- 0 1.0 4.0 566 598
r 3.349 1 2 cbr 500 ------- 0 1.0 4.0 567 599
r 3.354 1 2 cbr 500 ------- 0 1.0 4.0 568 600
r 3.359 1 2 cbr 500 ------- 0 1.0 4.0 569 601
r 3.364 1 2 cbr 500 ------- 0 1.0 4.0 570 602
r 3.369 1 2 cbr 500 ------- 0 1.0 4.0 571 603
r 3.374 1 2 cbr 500 ------- 0 1.0 4.0 572 604
r 3.379 1 2 cbr 500 ------- 0 1.0 4.0 573 605
r 3.384 1 2 cbr 500 ------- 0 1.0 4.0 574 606
r 3.389 1 2 cbr 500 ------- 0 1.0 4.0 575 607
r 3.394 1 2 cbr 500 ------- 0 1.0 4.0 576 608
r 3.399 1 2 cbr 500 ------- 0 1.0 4.0 577 609
r 3.404 1 2 cbr 500 ------- 0 1.0 4.0 578 610
r 3.409 1 2 cbr 500 ------- 0 1.0 4.0 579 611
r 3.414 1 2 cbr 500 ------- 0 1.0 4.0 580 612
r 3.419 1 2 cbr 500 ------- 0 1.0 4.0 581 613
r 3.424 1 2 cbr 500 ------- 0 1.0 4.0 582 614
r 3.429 1 2 cbr 500 ------- 0 1.0 4.0 583 615
r 3.434 1 2 cbr 500 ------- 0 1.0 4.0 584 616
r 3.439 1 2 cbr 500 ------- 0 1.0 4.0 585 617
r 3.444 1 2 cbr 500 ------- 0 1.0 4.0 586 618
r 3.449 1 2 cbr 500 ------- 0 1.0 4.0 587 619
r 3.454 1 2 cbr 500 ------- 0 1.0 4.0 588 620
r 3.459 1 2 cbr 500 ------- 0 1.0 4.0 589 621
r 3.464 1 2 cbr 500 ------- 0 1.0 4.0 590 622
r 3.469 1 2 cbr 500 ------- 0 1.0 4.0 591 623
r 3.474 1 2 cbr 500 ------- 0 1.0 4.0 592 624
r 3.479 1 2 cbr 500 ------- 0 1.0 4.0 593 625
r 3.484 1 2 cbr 500 ------- 0 1.0 4.0 594 626
r 3.489 1 2 cbr 500 ------- 0 1.0 4.0 595 627
r 3.494 1 2 cbr 500 ------- 0 1.0 4.0 596 628
r 3.499 1 2 cbr 500 ------- 0 1.0 4.0 597 629
r 3.504 1 2 cbr 500 ------- 0 1.0 4.0 598 630
r 3.509 1 2 cbr 500 ------- 0 1.0 4.0 599 631
r 3.514 1 2 cbr 500 ------- 0 1.0 4.0 600 632
r 3.519 1 2 cbr 500 ------- 0 1.0 4.0 601 633
r 3.524 1 2 cbr 500 ------- 0 1.0 4.0 602 634
r 3.529 1 2 cbr 500 ------- 0 1.0 4.0 603 635
r 3.534 1 2 cbr 500 ------- 0 1.0 4.0 604 636
r 3.539 1 2 cbr 500 ------- 0 1.0 4.0 605 637
r 3.544 1 2 cbr 500 ------- 0 1.0 4.0 606 638
r 3.549 1 2 cbr 500 ------- 0 1.0 4.0 607 639
r 3.554 1 2 cbr 500 ------- 0 1.0 4.0 608 640
r 3.559 1 2 cbr 500 ------- 0 1.0 4.0 609 641
r 3.564 1 2 cbr 500 ------- 0 1.0 4.0 610 642
r 3.569 1 2 cbr 500 ------- 0 1.0 4.0 611 643
r 3.574 1 2 cbr 500 ------- 0 1.0 4.0 612 644
r 3.579 1 2 cbr 500 ------- 0 1.0 4.0 613 645
r 3.584 1 2 cbr 500 ------- 0 1.0 4.0 614 646
r 3.589 1 2 cbr 500 ------- 0 1.0 4.0 615 647
r 3.594 1 2 cbr 500 ------- 0 1.0 4.0 616 648
r 3.599 1 2 cbr 500 ------- 0 1.0 4.0 617 649
r 3.604 1 2 cbr 500 ------- 0 1.0 4.0 618 650
r 3.609 1 2 cbr 500 ------- 0 1.0 4.0 619 651
r 3.614 1 2 cbr 500 ------- 0 1.0 4.0 620 652
r 3.619 1 2 cbr 500 ------- 0 1.0 4.0 621 653
r 3.624 1 2 cbr 500 ------- 0 1.0 4.0 622 654
r 3.629 1 2 cbr 500 ------- 0 1.0 4.0 623 655
r 3.634 1 2 cbr 500 ------- 0 1.0 4.0 624 656
r 3.639 1 2 cbr 500 ------- 0 1.0 4.0 625 657
r 3.644 1 2 cbr 500 ------- 0 1.0 4.0 626 658
r 3.649 1 2 cbr 500 ------- 0 1.0 4.0 627 659
r 3.654 1 2 cbr 500 ------- 0 1.0 4.0 628 660
r 3.659 1 2 cbr 500 ------- 0 1.0 4.0 629 661
r 3.664 1 2 cbr 500 ------- 0 1.0 4.0 630 662
r 3.669 1 2 cbr 500 ------- 0 1.0 4.0 631 663
r 3.674 1 2 cbr 500 ------- 0 1.0 4.0 632 664
r 3.679 1 2 cbr 500 ------- 0 1.0 4.0 633 665
r 3.684 1 2 cbr 500 ------- 0 1.0 4.0 634 666
r 3.689 1 2 cbr 500 ------- 0 1.0 4.0 635 667
r 3.694 1 2 cbr 500 ------- 0 1.0 4.0 636 668
r 3.699 1 2 cbr 500 ------- 0 1.0 4.0 637 669
r 3.704 1 2 cbr 500 ------- 0 1.0 4.0 638 670
r 3.709 1 2 cbr 500 ------- 0 1.0 4.0 639 671
r 3.714 1 2 cbr 500 ------- 0 1.0 4.0 640 672
r 3.719 1 2 cbr 500 ------- 0 1.0 4.0 641 673
r 3.724 1 2 cbr 500 ------- 0 1.0 4.0 642 674
r 3.729 1 2 cbr 500 ------- 0 1.0 4.0 643 675
r 3.734 1 2 cbr 500 ------- 0 1.0 4.0 644 676
r 3.739 1 2 cbr 500 ------- 0 1.0 4.0 645 677
r 3.744 1 2 cbr 500 ------- 0 1.0 4.0 646 678
r 3.749 1 2 cbr 500 ------- 0 1.0 4.0 647 679
r 3.754 1 2 cbr 500 ------- 0 1.0 4.0 648 680
r 3.759 1 2 cbr 500 ------- 0 1.0 4.0 649 681
r 3.764 1 2 cbr 500 ------- 0 1.0 4.0 650 682