r 0.027182 3 4 rtProtoDV 5 ------- 0 3.1 4.2 -1 6
r 0.047262 3 4 rtProtoDV 5 ------- 0 3.1 4.2 -1 14
r 0.054101 3 4 rtProtoDV 5 ------- 0 3.1 4.2 -1 18
r 0.542 3 4 cbr 500 ------- 0 1.0 4.0 0 24
r 0.547 3 4 cbr 500 ------- 0 1.0 4.0 1 25
r 0.552 3 4 cbr 500 ------- 0 1.0 4.0 2 26
r 0.557 3 4 cbr 500 ------- 0 1.0 4.0 3 27
r 0.562 3 4 cbr 500 ------- 0 1.0 4.0 4 28
r 0.567 3 4 cbr 500 ------- 0 1.0 4.0 5 29
r 0.572 3 4 cbr 500 ------- 0 1.0 4.0 6 30
r 0.577 3 4 cbr 500 ------- 0 1.0 4.0 7 31
r 0.582 3 4 cbr 500 ------- 0 1.0 4.0 8 32
r 0.587 3 4 cbr 500 ------- 0 1.0 4.0 9 33
r 0.592 3 4 cbr 500 ------- 0 1.0 4.0 10 34
r 0.597 3 4 cbr 500 ------- 0 1.0 4.0 11 35
r 0.602 3 4 cbr 500 ------- 0 1.0 4.0 12 36
r 0.607 3 4 cbr 500 ------- 0 1.0 4.0 13 37
r 0.612 3 4 cbr 500 ------- 0 1.0 4.0 14 38
r 0.617 3 4 cbr 500 ------- 0 1.0 4.0 15 39
r 0.622 3 4 cbr 500 ------- 0 1.0 4.0 16 40
r 0.627 3 4 cbr 500 ------- 0 1.0 4.0 17 41
r 0.632 3 4 cbr 500 ------- 0 1.0 4.0 18 42
r 0.637 3 4 cbr 500 ------- 0 1.0 4.0 19 43
r 0.642 3 4 cbr 500 ------- 0 1.0 4.0 20 44
r 0.647 3 4 cbr 500 ------- 0 1.0 4.0 21 45
r 0.652 3 4 cbr 500 ------- 0 1.0 4.0 22 46
r 0.657 3 4 cbr 500 ------- 0 1.0 4.0 23 47
r 0.662 3 4 cbr 500 ------- 0 1.0 4.0 24 48
r 0.667 3 4 cbr 500 ------- 0 1.0 4.0 25 49
r 0.672 3 4 cbr 500 ------- 0 1.0 4.0 26 50
r 0.677 3 4 cbr 500 ------- 0 1.0 4.0 27 51
r 0.682 3 4 cbr 500 ------- 0 1.0 4.0 28 52
r 0.687 3 4 cbr 500 ------- 0 1.0 4.0 29 53
r 0.692 3 4 cbr 500 ------- 0 1.0 4.0 30 54
r 0.697 3 4 cbr 500 ------- 0 1.0 4.0 31 55
r 0.702 3 4 cbr 500 ------- 0 1.0 4.0 32 56
r 0.707 3 4 cbr 500 ------- 0 1.0 4.0 33 57
r 0.712 3 4 cbr 500 ------- 0 1.0 4.0 34 58
r 0.717 3 4 cbr 500 ------- 0 1.0 4.0 35 59
r 0.722 3 4 cbr 500 ------- 0 1.0 4.0 36 60
r 0.727 3 4 cbr 500 ------- 0 1.0 4.0 37 61
r 0.732 3 4 cbr 500 ------- 0 1.0 4.0 38 62
r 0.737 3 4 cbr 500 ------- 0 1.0 4.0 39 63
r 0.742 3 4 cbr 500 ------- 0 1.0 4.0 40 64
r 0.747 3 4 cbr 500 ------- 0 1.0 4.0 41 65
r 0.752 3 4 cbr 500 ------- 0 1.0 4.0 42 66
r 0.757 3 4 cbr 500 ------- 0 1.0 4.0 43 67
r 0.762 3 4 cbr 500 ------- 0 1.0 4.0 44 68
r 0.767 3 4 cbr 500 ------- 0 1.0 4.0 45 69
r 0.772 3 4 cbr 500 ------- 0 1.0 4.0 46 70
r 0.777 3 4 cbr 500 ------- 0 1.0 4.0 47 71
r 0.782 3 4 cbr 500 ------- 0 1.0 4.0 48 72
r 0.787 3 4 cbr 500 ------- 0 1.0 4.0 49 73
r 0.792 3 4 cbr 500 ------- 0 1.0 4.0 50 74
r 0.797 3 4 cbr 500 ------- 0 1.0 4.0 51 75
r 0.802 3 4 cbr 500 ------- 0 1.0 4.0 52 76
r 0.807 3 4 cbr 500 ------- 0 1.0 4.0 53 77
r 0.812 3 4 cbr 500 ------- 0 1.0 4.0 54 78
r 0.817 3 4 cbr 500 ------- 0 1.0 4.0 55 79
r 0.822 3 4 cbr 500 ------- 0 1.0 4.0 56 80
r 0.827 3 4 cbr 500 ------- 0 1.0 4.0 57 81
r 0.832 3 4 cbr 500 ------- 0 1.0 4.0 58 82
r 0.837 3 4 cbr 500 ------- 0 1.0 4.0 59 83
r 0.842 3 4 cbr 500 ------- 0 1.0 4.0 60 84
r 0.847 3 4 cbr 500 ------- 0 1.0 4.0 61 85
r 0.852 3 4 cbr 500 ------- 0 1.0 4.0 62 86
r 0.857 3 4 cbr 500 ------- 0 1.0 4.0 63 87
r 0.862 3 4 cbr 500 ------- 0 1.0 4.0 64 88
r 0.867 3 4 cbr 500 ------- 0 1.0 4.0 65 89
r 0.872 3 4 cbr 500 ------- 0 1.0 4.0 66 90
r 0.877 3 4 cbr 500 ------- 0 1.0 4.0 67 91
r 0.882 3 4 cbr 500 ------- 0 1.0 4.0 68 92
r 0.887 3 4 cbr 500 ------- 0 1.0 4.0 69 93
r 0.892 3 4 cbr 500 ------- 0 1.0 4.0 70 94
r 0.897 3 4 cbr 500 ------- 0 1.0 4.0 71 95
r 0.902 3 4 cbr 500 ------- 0 1.0 4.0 72 96
r 0.907 3 4 cbr 500 ------- 0 1.0 4.0 73 97
r 0.912 3 4 cbr 500 ------- 0 1.0 4.0 74 98
r 0.917 3 4 cbr 500 ------- 0 1.0 4.0 75 99
r 0.922 3 4 cbr 500 ------- 0 1.0 4.0 76 100
r 0.927 3 4 cbr 500 ------- 0 1.0 4.0 77 101
r 0.932 3 4 cbr 500 ------- 0 1.0 4.0 78 102
r 0.937 3 4 cbr 500 ------- 0 1.0 4.0 79 103
r 0.942 3 4 cbr 500 ------- 0 1.0 4.0 80 104
r 0.947 3 4 cbr 500 ------- 0 1.0 4.0 81 105
r 0.952 3 4 cbr 500 ------- 0 1.0 4.0 82 106
r 0.957 3 4 cbr 500 ------- 0 1.0 4.0 83 107
r 0.962 3 4 cbr 500 ------- 0 1.0 4.0 84 108
r 0.967 3 4 cbr 500 ------- 0 1.0 4.0 85 109
r 0.972 3 4 cbr 500 ------- 0 1.0 4.0 86 110
r 0.977 3 4 cbr 500 ------- 0 1.0 4.0 87 111
r 0.982 3 4 cbr 500 ------- 0 1.0 4.0 88 112
r 0.987 3 4 cbr 500 ------- 0 1.0 4.0 89 113
r 0.992 3 4 cbr 500 ------- 0 1.0 4.0 90 114
r 0.997 3 4 cbr 500 ------- 0 1.0 4.0 91 115
r 1.002 3 4 cbr 500 ------- 0 1.0 4.0 92 116
r 1.007 3 4 cbr 500 ------- 0 1.0 4.0 93 117
r 1.012 3 4 cbr 500 ------- 0 1.0 4.0 94 118
r 1.017 3 4 cbr 500 ------- 0 1.0 4.0 95 119
r 1.022 3 4 cbr 500 ------- 0 1.0 4.0 96 120
r 1.027 3 4 cbr 500 ------- 0 1.0 4.0 97 121
r 1.032 3 4 cbr 500 ------- 0 1.0 4.0 98 122
r 1.037 3 4 cbr 500 ------- 0 1.0 4.0 99 123
r 1.042 3 4 cbr 500 ------- 0 1.0 4.0 100 124
r 1.047 3 4 cbr 500 ------- 0 1.0 4.0 101 125
r 1.052 3 4 cbr 500 ------- 0 1.0 4.0 102 126
r 1.057 3 4 cbr 500 ------- 0 1.0 4.0 103 127
r 1.062 3 4 cbr 500 ------- 0 1.0 4.0 104 128
r 1.067 3 4 cbr 500 ------- 0 1.0 4.0 105 129
r 1.072 3 4 cbr 500 ------- 0 1.0 4.0 106 130
r 1.077 3 4 cbr 500 ------- 0 1.0 4.0 107 131
r 1.082 3 4 cbr 500 ------- 0 1.0 4.0 108 132
r 1.087 3 4 cbr 500 ------- 0 1.0 4.0 109 133
r 1.092 3 4 cbr 500 ------- 0 1.0 4.0 110 134
r 1.097 3 4 cbr 500 ------- 0 1.0 4.0 111 135
r 1.102 3 4 cbr 500 ------- 0 1.0 4.0 112 136
r 1.107 3 4 cbr 500 ------- 0 1.0 4.0 113 137
r 1.112 3 4 cbr 500 ------- 0 1.0 4.0 114 138
r 1.117 3 4 cbr 500 ------- 0 1.0 4.0 115 139
r 1.122 3 4 cbr 500 ------- 0 1.0 4.0 116 140
r 1.127 3 4 cbr 500 ------- 0 1.0 4.0 117 141
r 1.132 3 4 cbr 500 ------- 0 1.0 4.0 118 142
r 1.137 3 4 cbr 500 ------- 0 1.0 4.0 119 143
r 1.142 3 4 cbr 500 ------- 0 1.0 4.0 120 144
r 1.147 3 4 cbr 500 ------- 0 1.0 4.0 121 145
r 1.152 3 4 cbr 500 ------- 0 1.0 4.0 122 146
r 1.157 3 4 cbr 500 ------- 0 1.0 4.0 123 147
r 1.162 3 4 cbr 500 ------- 0 1.0 4.0 124 148
r 1.167 3 4 cbr 500 ------- 0 1.0 4.0 125 149
r 1.172 3 4 cbr 500 ------- 0 1.0 4.0 126 150
r 1.177 3 4 cbr 500 ------- 0 1.0 4.0 127 151
r 1.182 3 4 cbr 500 ------- 0 1.0 4.0 128 152
r 1.187 3 4 cbr 500 ------- 0 1.0 4.0 129 153
r 1.192 3 4 cbr 500 ------- 0 1.0 4.0 130 154
r 1.197 3 4 cbr 500 ------- 0 1.0 4.0 131 155
r 1.202 3 4 cbr 500 ------- 0 1.0 4.0 132 156
r 1.207 3 4 cbr 500 ------- 0 1.0 4.0 133 157
r 1.212 3 4 cbr 500 ------- 0 1.0 4.0 134 158
r 1.217 3 4 cbr 500 ------- 0 1.0 4.0 135 159
r 1.222 3 4 cbr 500 ------- 0 1.0 4.0 136 160
r 1.227 3 4 cbr 500 ------- 0 1.0 4.0 137 161
r 1.232 3 4 cbr 500 ------- 0 1.0 4.0 138 162
r 1.237 3 4 cbr 500 ------- 0 1.0 4.0 139 163
r 1.242 3 4 cbr 500 ------- 0 1.0 4.0 140 164
r 1.247 3 4 cbr 500 ------- 0 1.0 4.0 141 165
r 1.252 3 4 cbr 500 ------- 0 1.0 4.0 142 166
r 1.257 3 4 cbr 500 ------- 0 1.0 4.0 143 167
r 1.262 3 4 cbr 500 ------- 0 1.0 4.0 144 168
r 1.267 3 4 cbr 500 ------- 0 1.0 4.0 145 169
r 1.272 3 4 cbr 500 ------- 0 1.0 4.0 146 170
r 1.277 3 4 cbr 500 ------- 0 1.0 4.0 147 171
r 1.282 3 4 cbr 500 ------- 0 1.0 4.0 148 172
r 1.287 3 4 cbr 500 ------- 0 1.0 4.0 149 173
r 1.292 3 4 cbr 500 ------- 0 1.0 4.0 150 174
r 1.297 3 4 cbr 500 ------- 0 1.0 4.0 151 175
r 1.302 3 4 cbr 500 ------- 0 1.0 4.0 152 176
r 1.307 3 4 cbr 500 ------- 0 1.0 4.0 153 177
r 1.312 3 4 cbr 500 ------- 0 1.0 4.0 154 178
r 1.317 3 4 cbr 500 ------- 0 1.0 4.0 155 179
r 1.322 3 4 cbr 500 ------- 0 1.0 4.0 156 180
r 1.327 3 4 cbr 500 ------- 0 1.0 4.0 157 181
r 1.332 3 4 cbr 500 ------- 0 1.0 4.0 158 182
r 1.337 3 4 cbr 500 ------- 0 1.0 4.0 159 183
r 1.342 3 4 cbr 500 ------- 0 1.0 4.0 160 184
r 1.347 3 4 cbr 500 ------- 0 1.0 4.0 161 185
r 1.352 3 4 cbr 500 ------- 0 1.0 4.0 162 186
r 1.357 3 4 cbr 500 ------- 0 1.0 4.0 163 187
r 1.362 3 4 cbr 500 ------- 0 1.0 4.0 164 188
r 1.367 3 4 cbr 500 ------- 0 1.0 4.0 165 189
r 1.372 3 4 cbr 500 ------- 0 1.0 4.0 166 190
r 1.377 3 4 cbr 500 ------- 0 1.0 4.0 167 191
r 1.382 3 4 cbr 500 ------- 0 1.0 4.0 168 192
r 1.387 3 4 cbr 500 ------- 0 1.0 4.0 169 193
r 1.392 3 4 cbr 500 ------- 0 1.0 4.0 170 194
r 1.397 3 4 cbr 500 ------- 0 1.0 4.0 171 195
r 1.402 3 4 cbr 500 ------- 0 1.0 4.0 172 196
r 1.407 3 4 cbr 500 ------- 0 1.0 4.0 173 197
r 1.412 3 4 cbr 500 ------- 0 1.0 4.0 174 198
r 1.417 3 4 cbr 500 ------- 0 1.0 4.0 175 199
r 1.422 3 4 cbr 500 ------- 0 1.0 4.0 176 200
r 1.427 3 4 cbr 500 ------- 0 1.0 4.0 177 201
r 1.432 3 4 cbr 500 ------- 0 1.0 4.0 178 202
r 1.437 3 4 cbr 500 ------- 0 1.0 4.0 179 203
r 1.442 3 4 cbr 500 ------- 0 1.0 4.0 180 204
r 1.447 3 4 cbr 500 ------- 0 1.0 4.0 181 205
r 1.452 3 4 cbr 500 ------- 0 1.0 4.0 182 206
r 1.457 3 4 cbr 500 ------- 0 1.0 4.0 183 207
r 1.462 3 4 cbr 500 ------- 0 1.0 4.0 184 208
r 1.467 3 4 cbr 500 ------- 0 1.0 4.0 185 209
r 1.472 3 4 cbr 500 ------- 0 1.0 4.0 186 210
r 1.477 3 4 cbr 500 ------- 0 1.0 4.0 187 211
r 1.482 3 4 cbr 500 ------- 0 1.0 4.0 188 212
r 1.487 3 4 cbr 500 ------- 0 1.0 4.0 189 213
r 1.492 3 4 cbr 500 ------- 0 1.0 4.0 190 214
r 1.497 3 4 cbr 500 ------- 0 1.0 4.0 191 215
r 1.502 3 4 cbr 500 ------- 0 1.0 4.0 192 216
r 1.507 3 4 cbr 500 ------- 0 1.0 4.0 193 217
r 1.512 3 4 cbr 500 ------- 0 1.0 4.0 194 218
r 1.517 3 4 cbr 500 ------- 0 1.0 4.0 195 219
r 1.522 3 4 cbr 500 ------- 0 1.0 4.0 196 220
r 1.527 3 4 cbr 500 ------- 0 1.0 4.0 197 221
r 1.532 3 4 cbr 500 ------- 0 1.0 4.0 198 222
r 1.537 3 4 cbr 500 ------- 0 1.0 4.0 199 223
r 1.542 3 4 cbr 500 ------- 0 1.0 4.0 200 224
r 1.547 3 4 cbr 500 ------- 0 1.0 4.0 201 225
r 1.552 3 4 cbr 500 ------- 0 1.0 4.0 202 226
r 1.557 3 4 cbr 500 ------- 0 1.0 4.0 203 227
r 1.562 3 4 cbr 500 ------- 0 1.0 4.0 204 228
r 1.567 3 4 cbr 500 ------- 0 1.0 4.0 205 229
r 1.572 3 4 cbr 500 ------- 0 1.0 4.0 206 230
r 1.577 3 4 cbr 500 ------- 0 1.0 4.0 207 231
r 1.582 3 4 cbr 500 ------- 0 1.0 4.0 208 232
r 1.587 3 4 cbr 500 ------- 0 1.0 4.0 209 233
r 1.592 3 4 cbr 500 ------- 0 1.0 4.0 210 234
r 1.597 3 4 cbr 500 ------- 0 1.0 4.0 211 235
r 1.602 3 4 cbr 500 ------- 0 1.0 4.0 212 236
r 1.607 3 4 cbr 500 ------- 0 1.0 4.0 213 237
r 1.612 3 4 cbr 500 ------- 0 1.0 4.0 214 238
r 1.617 3 4 cbr 500 ------- 0 1.0 4.0 215 239
r 1.622 3 4 cbr 500 ------- 0 1.0 4.0 216 240
r 1.627 3 4 cbr 500 ------- 0 1.0 4.0 217 241
r 1.632 3 4 cbr 500 ------- 0 1.0 4.0 218 242
r 1.637 3 4 cbr 500 ------- 0 1.0 4.0 219 243
r 1.642 3 4 cbr 500 ------- 0 1.0 4.0 220 244
r 1.647 3 4 cbr 500 ------- 0 1.0 4.0 221 245
r 1.652 3 4 cbr 500 ------- 0 1.0 4.0 222 246
r 1.657 3 4 cbr 500 ------- 0 1.0 4.0 223 247
r 1.662 3 4 cbr 500 ------- 0 1.0 4.0 224 248
r 1.667 3 4 cbr 500 ------- 0 1.0 4.0 225 249
r 1.672 3 4 cbr 500 ------- 0 1.0 4.0 226 250
r 1.677 3 4 cbr 500 ------- 0 1.0 4.0 227 251
r 1.682 3 4 cbr 500 ------- 0 1.0 4.0 228 252
r 1.687 3 4 cbr 500 ------- 0 1.0 4.0 229 253
r 1.692 3 4 cbr 500 ------- 0 1.0 4.0 230 254
r 1.697 3 4 cbr 500 ------- 0 1.0 4.0 231 255
r 1.702 3 4 cbr 500 ------- 0 1.0 4.0 232 256
r 1.707 3 4 cbr 500 ------- 0 1.0 4.0 233 257
r 1.712 3 4 cbr 500 ------- 0 1.0 4.0 234 258
r 1.717 3 4 cbr 500 ------- 0 1.0 4.0 235 259
r 1.722 3 4 cbr 500 ------- 0 1.0 4.0 236 260
r 1.727 3 4 cbr 500 ------- 0 1.0 4.0 237 261
r 1.732 3 4 cbr 500 ------- 0 1.0 4.0 238 262
r 1.737 3 4 cbr 500 ------- 0 1.0 4.0 239 263
r 1.742 3 4 cbr 500 ------- 0 1.0 4.0 240 264
r 1.747 3 4 cbr 500 ------- 0 1.0 4.0 241 265
r 1.752 3 4 cbr 500 ------- 0 1.0 4.0 242 266
r 1.757 3 4 cbr 500 ------- 0 1.0 4.0 243 267
r 1.762 3 4 cbr 500 ------- 0 1.0 4.0 244 268
r 1.767 3 4 cbr 500 ------- 0 1.0 4.0 245 269
r 1.772 3 4 cbr 500 ------- 0 1.0 4.0 246 270
r 1.777 3 4 cbr 500 ------- 0 1.0 4.0 247 271
r 1.782 3 4 cbr 500 ------- 0 1.0 4.0 248 272
r 1.787 3 4 cbr 500 ------- 0 1.0 4.0 249 273
r 1.792 3 4 cbr 500 ------- 0 1.0 4.0 250 274
r 1.797 3 4 cbr 500 ------- 0 1.0 4.0 251 275
r 1.802 3 4 cbr 500 ------- 0 1.0 4.0 252 276
r 1.807 3 4 cbr 500 ------- 0 1.0 4.0 253 277
r 1.812 3 4 cbr 500 ------- 0 1.0 4.0 254 278
r 1.817 3 4 cbr 500 ------- 0 1.0 4.0 255 279
r 1.822 3 4 cbr 500 ------- 0 1.0 4.0 256 280
r 1.827 3 4 cbr 500 ------- 0 1.0 4.0 257 281
r 1.832 3 4 cbr 500 ------- 0 1.0 4.0 258 282
r 1.837 3 4 cbr 500 ------- 0 1.0 4.0 259 283
r 1.842 3 4 cbr 500 ------- 0 1.0 4.0 260 284
r 1.847 3 4 cbr 500 ------- 0 1.0 4.0 261 285
r 1.852 3 4 cbr 500 ------- 0 1.0 4.0 262 286
r 1.857 3 4 cbr 500 ------- 0 1.0 4.0 263 287
r 1.862 3 4 cbr 500 ------- 0 1.0 4.0 264 288
r 1.867 3 4 cbr 500 ------- 0 1.0 4.0 265 289
r 1.872 3 4 cbr 500 ------- 0 1.0 4.0 266 290
r 1.877 3 4 cbr 500 ------- 0 1.0 4.0 267 291
r 1.882 3 4 cbr 500 ------- 0 1.0 4.0 268 292
r 1.887 3 4 cbr 500 ------- 0 1.0 4.0 269 293
r 1.892 3 4 cbr 500 ------- 0 1.0 4.0 270 294
r 1.897 3 4 cbr 500 ------- 0 1.0 4.0 271 295
r 1.902 3 4 cbr 500 ------- 0 1.0 4.0 272 296
r 1.907 3 4 cbr 500 ------- 0 1.0 4.0 273 297
r 1.912 3 4 cbr 500 ------- 0 1.0 4.0 274 298
r 1.917 3 4 cbr 500 ------- 0 1.0 4.0 275 299
r 1.922 3 4 cbr 500 ------- 0 1.0 4.0 276 300
r 1.927 3 4 cbr 500 ------- 0 1.0 4.0 277 301
r 1.932 3 4 cbr 500 ------- 0 1.0 4.0 278 302
r 1.937 3 4 cbr 500 ------- 0 1.0 4.0 279 303
r 1.942 3 4 cbr 500 ------- 0 1.0 4.0 280 304
r 1.947 3 4 cbr 500 ------- 0 1.0 4.0 281 305
r 1.952 3 4 cbr 500 ------- 0 1.0 4.0 282 306
r 1.957 3 4 cbr 500 ------- 0 1.0 4.0 283 307
r 1.962 3 4 cbr 500 ------- 0 1.0 4.0 284 308
r 1.967 3 4 cbr 500 ------- 0 1.0 4.0 285 309
r 1.972 3 4 cbr 500 ------- 0 1.0 4.0 286 310
r 1.977 3 4 cbr 500 ------- 0 1.0 4.0 287 313
r 1.982 3 4 cbr 500 ------- 0 1.0 4.0 288 314
r 1.987 3 4 cbr 500 ------- 0 1.0 4.0 289 315
r 1.992 3 4 cbr 500 ------- 0 1.0 4.0 290 316
r 1.997 3 4 cbr 500 ------- 0 1.0 4.0 291 317
r 2.002 3 4 cbr 500 ------- 0 1.0 4.0 292 318
r 2.007 3 4 cbr 500 ------- 0 1.0 4.0 293 319
r 2.012 3 4 cbr 500 ------- 0 1.0 4.0 294 320
r 2.017 3 4 cbr 500 ------- 0 1.0 4.0 295 321
r 2.022 3 4 cbr 500 ------- 0 1.0 4.0 296 322
r 2.027 3 4 cbr 500 ------- 0 1.0 4.0 297 323
r 2.032 3 4 cbr 500 ------- 0 1.0 4.0 298 324
r 2.037 3 4 cbr 500 ------- 0 1.0 4.0 299 325
r 2.042 3 4 cbr 500 ------- 0 1.0 4.0 300 326
r 2.047 3 4 cbr 500 ------- 0 1.0 4.0 301 327
r 2.052 3 4 cbr 500 ------- 0 1.0 4.0 302 328
r 2.057 3 4 cbr 500 ------- 0 1.0 4.0 303 329
r 2.062 3 4 cbr 500 ------- 0 1.0 4.0 304 330
r 2.067 3 4 cbr 500 ------- 0 1.0 4.0 305 331
r 2.072 3 4 cbr 500 ------- 0 1.0 4.0 306 332
r 2.077 3 4 cbr 500 ------- 0 1.0 4.0 307 333
r 2.082 3 4 cbr 500 ------- 0 1.0 4.0 308 334
r 2.087 3 4 cbr 500 ------- 0 1.0 4.0 309 335
r 2.092 3 4 cbr 500 ------- 0 1.0 4.0 310 336
r 2.097 3 4 cbr 500 ------- 0 1.0 4.0 311 337
r 2.102 3 4 cbr 500 ------- 0 1.0 4.0 312 338
r 2.107 3 4 cbr 500 ------- 0 1.0 4.0 313 339
r 2.112 3 4 cbr 500 ------- 0 1.0 4.0 314 340
r 2.117 3 4 cbr 500 ------- 0 1.0 4.0 315 341
r 2.122 3 4 cbr 500 ------- 0 1.0 4.0 316 342
r 2.127 3 4 cbr 500 ------- 0 1.0 4.0 317 343
r 2.132 3 4 cbr 500 ------- 0 1.0 4.0 318 344
r 2.137 3 4 cbr 500 ------- 0 1.0 4.0 319 345
r 2.142 3 4 cbr 500 ------- 0 1.0 4.0 320 346
r 2.147 3 4 cbr 500 ------- 0 1.0 4.0 321 347
r 2.152 3 4 cbr 500 ------- 0 1.0 4.0 322 348
r 2.157 3 4 cbr 500 ------- 0 1.0 4.0 323 350
r 2.162 3 4 cbr 500 ------- 0 1.0 4.0 324 352
r 2.167 3 4 cbr 500 ------- 0 1.0 4.0 325 353
r 2.172 3 4 cbr 500 ------- 0 1.0 4.0 326 354
r 2.177 3 4 cbr 500 ------- 0 1.0 4.0 327 355
r 2.182 3 4 cbr 500 ------- 0 1.0 4.0 328 356
r 2.18204 3 4 rtProtoDV 5 ------- 0 3.1 4.2 -1 364
r 2.187 3 4 cbr 500 ------- 0 1.0 4.0 329 357
r 2.192 3 4 cbr 500 ------- 0 1.0 4.0 330 358
r 2.197 3 4 cbr 500 ------- 0 1.0 4.0 331 359
r 2.202 3 4 cbr 500 ------- 0 1.0 4.0 332 360
r 2.207 3 4 cbr 500 ------- 0 1.0 4.0 333 361
r 2.212 3 4 cbr 500 ------- 0 1.0 4.0 334 362
r 2.217 3 4 cbr 500 ------- 0 1.0 4.0 335 365
r 2.222 3 4 cbr 500 ------- 0 1.0 4.0 336 366
r 2.227 3 4 cbr 500 ------- 0 1.0 4.0 337 367
r 2.232 3 4 cbr 500 ------- 0 1.0 4.0 338 368
r 2.237 3 4 cbr 500 ------- 0 1.0 4.0 339 369
r 2.242 3 4 cbr 500 ------- 0 1.0 4.0 340 370
r 2.247 3 4 cbr 500 ------- 0 1.0 4.0 341 371
r 2.252 3 4 cbr 500 ------- 0 1.0 4.0 342 372
r 2.257 3 4 cbr 500 ------- 0 1.0 4.0 343 373
r 2.262 3 4 cbr 500 ------- 0 1.0 4.0 344 374
r 2.267 3 4 cbr 500 ------- 0 1.0 4.0 345 375
r 2.272 3 4 cbr 500 ------- 0 1.0 4.0 346 376
r 2.277 3 4 cbr 500 ------- 0 1.0 4.0 347 377
r 2.282 3 4 cbr 500 ------- 0 1.0 4.0 348 378
r 2.287 3 4 cbr 500 ------- 0 1.0 4.0 349 379
r 2.292 3 4 cbr 500 ------- 0 1.0 4.0 350 380
r 2.297 3 4 cbr 500 ------- 0 1.0 4.0 351 381
r 2.302 3 4 cbr 500 ------- 0 1.0 4.0 352 382
r 2.307 3 4 cbr 500 ------- 0 1.0 4.0 353 383
r 2.312 3 4 cbr 500 ------- 0 1.0 4.0 354 384
r 2.317 3 4 cbr 500 ------- 0 1.0 4.0 355 385
r 2.322 3 4 cbr 500 ------- 0 1.0 4.0 356 386
r 2.327 3 4 cbr 500 ------- 0 1.0 4.0 357 387
r 2.332 3 4 cbr 500 ------- 0 1.0 4.0 358 388
r 2.337 3 4 cbr 500 ------- 0 1.0 4.0 359 389
r 2.342 3 4 cbr 500 ------- 0 1.0 4.0 360 390
r 2.347 3 4 cbr 500 ------- 0 1.0 4.0 361 391
r 2.352 3 4 cbr 500 ------- 0 1.0 4.0 362 392
r 2.357 3 4 cbr 500 ------- 0 1.0 4.0 363 393
r 2.362 3 4 cbr 500 ------- 0 1.0 4.0 364 394
r 2.367 3 4 cbr 500 ------- 0 1.0 4.0 365 395
r 2.372 3 4 cbr 500 ------- 0 1.0 4.0 366 396
r 2.377 3 4 cbr 500 ------- 0 1.0 4.0 367 399
r 2.382 3 4 cbr 500 ------- 0 1.0 4.0 368 400
r 2.387 3 4 cbr 500 ------- 0 1.0 4.0 369 401
r 2.392 3 4 cbr 500 ------- 0 1.0 4.0 370 402
r 2.397 3 4 cbr 500 ------- 0 1.0 4.0 371 403
r 2.402 3 4 cbr 500 ------- 0 1.0 4.0 372 404
r 2.407 3 4 cbr 500 ------- 0 1.0 4.0 373 405
r 2.412 3 4 cbr 500 ------- 0 1.0 4.0 374 406
r 2.417 3 4 cbr 500 ------- 0 1.0 4.0 375 407
r 2.422 3 4 cbr 500 ------- 0 1.0 4.0 376 408
r 2.427 3 4 cbr 500 ------- 0 1.0 4.0 377 409
r 2.432 3 4 cbr 500 ------- 0 1.0 4.0 378 410
r 2.437 3 4 cbr 500 ------- 0 1.0 4.0 379 411
r 2.442 3 4 cbr 500 ------- 0 1.0 4.0 380 412
r 2.447 3 4 cbr 500 ------- 0 1.0 4.0 381 413
r 2.452 3 4 cbr 500 ------- 0 1.0 4.0 382 414
r 2.457 3 4 cbr 500 ------- 0 1.0 4.0 383 415
r 2.462 3 4 cbr 500 ------- 0 1.0 4.0 384 416
r 2.467 3 4 cbr 500 ------- 0 1.0 4.0 385 417
r 2.472 3 4 cbr 500 ------- 0 1.0 4.0 386 418
r 2.477 3 4 cbr 500 ------- 0 1.0 4.0 387 419
r 2.482 3 4 cbr 500 ------- 0 1.0 4.0 388 420
r 2.487 3 4 cbr 500 ------- 0 1.0 4.0 389 421
r 2.492 3 4 cbr 500 ------- 0 1.0 4.0 390 422
r 2.497 3 4 cbr 500 ------- 0 1.0 4.0 391 423
r 2.502 3 4 cbr 500 ------- 0 1.0 4.0 392 424
r 2.507 3 4 cbr 500 ------- 0 1.0 4.0 393 425
r 2.512 3 4 cbr 500 ------- 0 1.0 4.0 394 426
r 2.517 3 4 cbr 500 ------- 0 1.0 4.0 395 427
r 2.522 3 4 cbr 500 ------- 0 1.0 4.0 396 428
r 2.527 3 4 cbr 500 ------- 0 1.0 4.0 397 429
r 2.532 3 4 cbr 500 ------- 0 1.0 4.0 398 430
r 2.537 3 4 cbr 500 ------- 0 1.0 4.0 399 431
r 2.542 3 4 cbr 500 ------- 0 1.0 4.0 400 432
r 2.547 3 4 cbr 500 ------- 0 1.0 4.0 401 433
r 2.552 3 4 cbr 500 ------- 0 1.0 4.0 402 434
r 2.557 3 4 cbr 500 ------- 0 1.0 4.0 403 435
r 2.562 3 4 cbr 500 ------- 0 1.0 4.0 404 436
r 2.567 3 4 cbr 500 ------- 0 1.0 4.0 405 437
r 2.572 3 4 cbr 500 ------- 0 1.0 4.0 406 438
r 2.577 3 4 cbr 500 ------- 0 1.0 4.0 407 439
r 2.582 3 4 cbr 500 ------- 0 1.0 4.0 408 440
r 2.587 3 4 cbr 500 ------- 0 1.0 4.0 409 441
r 2.592 3 4 cbr 500 ------- 0 1.0 4.0 410 442
r 2.597 3 4 cbr 500 ------- 0 1.0 4.0 411 443
r 2.602 3 4 cbr 500 ------- 0 1.0 4.0 412 444
r 2.607 3 4 cbr 500 ------- 0 1.0 4.0 413 445
r 2.612 3 4 cbr 500 ------- 0 1.0 4.0 414 446
r 2.617 3 4 cbr 500 ------- 0 1.0 4.0 415 447
r 2.622 3 4 cbr 500 ------- 0 1.0 4.0 416 448
r 2.627 3 4 cbr 500 ------- 0 1.0 4.0 417 449
r 2.632 3 4 cbr 500 ------- 0 1.0 4.0 418 450
r 2.637 3 4 cbr 500 ------- 0 1.0 4.0 419 451
r 2.642 3 4 cbr 500 ------- 0 1.0 4.0 420 452
r 2.647 3 4 cbr 500 ------- 0 1.0 4.0 421 453
r 2.652 3 4 cbr 500 ------- 0 1.0 4.0 422 454
r 2.657 3 4 cbr 500 ------- 0 1.0 4.0 423 455
r 2.662 3 4 cbr 500 ------- 0 1.0 4.0 424 456
r 2.667 3 4 cbr 500 ------- 0 1.0 4.0 425 457
r 2.672 3 4 cbr 500 ------- 0 1.0 4.0 426 458
r 2.677 3 4 cbr 500 ------- 0 1.0 4.0 427 459
r 2.682 3 4 cbr 500 ------- 0 1.0 4.0 428 460
r 2.687 3 4 cbr 500 ------- 0 1.0 4.0 429 461
r 2.692 3 4 cbr 500 ------- 0 1.0 4.0 430 462
r 2.697 3 4 cbr 500 ------- 0 1.0 4.0 431 463
r 2.702 3 4 cbr 500 ------- 0 1.0 4.0 432 464
r 2.707 3 4 cbr 500 ------- 0 1.0 4.0 433 465
r 2.712 3 4 cbr 500 ------- 0 1.0 4.0 434 466
r 2.717 3 4 cbr 500 ------- 0 1.0 4.0 435 467
r 2.722 3 4 cbr 500 ------- 0 1.0 4.0 436 468
r 2.727 3 4 cbr 500 ------- 0 1.0 4.0 437 469
r 2.732 3 4 cbr 500 ------- 0 1.0 4.0 438 470
r 2.737 3 4 cbr 500 ------- 0 1.0 4.0 439 471
r 2.742 3 4 cbr 500 ------- 0 1.0 4.0 440 472
r 2.747 3 4 cbr 500 ------- 0 1.0 4.0 441 473
r 2.752 3 4 cbr 500 ------- 0 1.0 4.0 442 474
r 2.757 3 4 cbr 500 ------- 0 1.0 4.0 443 475
r 2.762 3 4 cbr 500 ------- 0 1.0 4.0 444 476
r 2.767 3 4 cbr 500 ------- 0 1.0 4.0 445 477
r 2.772 3 4 cbr 500 ------- 0 1.0 4.0 446 478
r 2.777 3 4 cbr 500 ------- 0 1.0 4.0 447 479
r 2.782 3 4 cbr 500 ------- 0 1.0 4.0 448 480
r 2.787 3 4 cbr 500 ------- 0 1.0 4.0 449 481
r 2.792 3 4 cbr 500 ------- 0 1.0 4.0 450 482
r 2.797 3 4 cbr 500 ------- 0 1.0 4.0 451 483
r 2.802 3 4 cbr 500 ------- 0 1.0 4.0 452 484
r 2.807 3 4 cbr 500 ------- 0 1.0 4.0 453 485
r 2.812 3 4 cbr 500 ------- 0 1.0 4.0 454 486
r 2.817 3 4 cbr 500 ------- 0 1.0 4.0 455 487
r 2.822 3 4 cbr 500 ------- 0 1.0 4.0 456 488
r 2.827 3 4 cbr 500 ------- 0 1.0 4.0 457 489
r 2.832 3 4 cbr 500 ------- 0 1.0 4.0 458 490
r 2.837 3 4 cbr 500 ------- 0 1.0 4.0 459 491
r 2.842 3 4 cbr 500 ------- 0 1.0 4.0 460 492
r 2.847 3 4 cbr 500 ------- 0 1.0 4.0 461 493
r 2.852 3 4 cbr 500 ------- 0 1.0 4.0 462 494
r 2.857 3 4 cbr 500 ------- 0 1.0 4.0 463 495
r 2.862 3 4 cbr 500 ------- 0 1.0 4.0 464 496
r 2.867 3 4 cbr 500 ------- 0 1.0 4.0 465 497
r 2.872 3 4 cbr 500 ------- 0 1.0 4.0 466 498
r 2.877 3 4 cbr 500 ------- 0 1.0 4.0 467 499
r 2.882 3 4 cbr 500 ------- 0 1.0 4.0 468 500
r 2.887 3 4 cbr 500 ------- 0 1.0 4.0 469 501
r 2.892 3 4 cbr 500 ------- 0 1.0 4.0 470 502
r 2.897 3 4 cbr 500 ------- 0 1.0 4.0 471 503
r 2.902 3 4 cbr 500 ------- 0 1.0 4.0 472 504
r 2.907 3 4 cbr 500 ------- 0 1.0 4.0 473 505
r 2.912 3 4 cbr 500 ------- 0 1.0 4.0 474 506
r 2.917 3 4 cbr 500 ------- 0 1.0 4.0 475 507
r 2.922 3 4 cbr 500 ------- 0 1.0 4.0 476 508
r 2.927 3 4 cbr 500 ------- 0 1.0 4.0 477 509
r 2.932 3 4 cbr 500 ------- 0 1.0 4.0 478 510
r 2.937 3 4 cbr 500 ------- 0 1.0 4.0 479 511
r 2.942 3 4 cbr 500 ------- 0 1.0 4.0 480 512
r 2.947 3 4 cbr 500 ------- 0 1.0 4.0 481 513
r 2.952 3 4 cbr 500 ------- 0 1.0 4.0 482 514
r 2.957 3 4 cbr 500 ------- 0 1.0 4.0 483 515
r 2.962 3 4 cbr 500 ------- 0 1.0 4.0 484 516
r 2.967 3 4 cbr 500 ------- 0 1.0 4.0 485 517
r 2.972 3 4 cbr 500 ------- 0 1.0 4.0 486 518
r 2.977 3 4 cbr 500 ------- 0 1.0 4.0 487 519
r 2.982 3 4 cbr 500 ------- 0 1.0 4.0 488 520
r 2.987 3 4 cbr 500 ------- 0 1.0 4.0 489 521
r 2.992 3 4 cbr 500 ------- 0 1.0 4.0 490 522
r 2.997 3 4 cbr 500 ------- 0 1.0 4.0 491 523
r 3.002 3 4 cbr 500 ------- 0 1.0 4.0 492 524
r 3.007 3 4 cbr 500 ------- 0 1.0 4.0 493 525
r 3.012 3 4 cbr 500 ------- 0 1.0 4.0 494 526
r 3.017 3 4 cbr 500 ------- 0 1.0 4.0 495 527
r 3.022 3 4 cbr 500 ------- 0 1.0 4.0 496 528
r 3.027 3 4 cbr 500 ------- 0 1.0 4.0 497 529
r 3.032 3 4 cbr 500 ------- 0 1.0 4.0 498 530
r 3.037 3 4 cbr 500 ------- 0 1.0 4.0 499 531
r 3.042 3 4 cbr 500 ------- 0 1.0 4.0 500 532
r 3.047 3 4 cbr 500 ------- 0 1.0 4.0 501 533
r 3.052 3 4 cbr 500 ------- 0 1.0 4.0 502 534
r 3.057 3 4 cbr 500 ------- 0 1.0 4.0 503 535
r 3.062 3 4 cbr 500 ------- 0 1.0 4.0 504 536
r 3.067 3 4 cbr 500 ------- 0 1.0 4.0 505 537
r 3.072 3 4 cbr 500 ------- 0 1.0 4.0 506 538
r 3.077 3 4 cbr 500 ------- 0 1.0 4.0 507 539
r 3.082 3 4 cbr 500 ------- 0 1.0 4.0 508 540
r 3.087 3 4 cbr 500 ------- 0 1.0 4.0 509 541
r 3.092 3 4 cbr 500 ------- 0 1.0 4.0 510 542
r 3.097 3 4 cbr 500 ------- 0 1.0 4.0 511 543
r 3.102 3 4 cbr 500 ------- 0 1.0 4.0 512 544
r 3.107 3 4 cbr 500 ------- 0 1.0 4.0 513 545
r 3.112 3 4 cbr 500 ------- 0 1.0 4.0 514 546
r 3.117 3 4 cbr 500 ------- 0 1.0 4.0 515 547
r 3.122 3 4 cbr 500 ------- 0 1.0 4.0 516 548
r 3.127 3 4 cbr 500 ------- 0 1.0 4.0 517 549
r 3.132 3 4 cbr 500 ------- 0 1.0 4.0 518 550
r 3.137 3 4 cbr 500 ------- 0 1.0 4.0 519 551
r 3.142 3 4 cbr 500 ------- 0 1.0 4.0 520 552
r 3.147 3 4 cbr 500 ------- 0 1.0 4.0 521 553
r 3.152 3 4 cbr 500 ------- 0 1.0 4.0 522 554
r 3.157 3 4 cbr 500 ------- 0 1.0 4.0 523 555
r 3.162 3 4 cbr 500 ------- 0 1.0 4.0 524 556
r 3.167 3 4 cbr 500 ------- 0 1.0 4.0 525 557
r 3.172 3 4 cbr 500 ------- 0 1.0 4.0 526 558
r 3.177 3 4 cbr 500 ------- 0 1.0 4.0 527 559
r 3.182 3 4 cbr 500 ------- 0 1.0 4.0 528 560
r 3.187 3 4 cbr 500 ------- 0 1.0 4.0 529 561
r 3.192 3 4 cbr 500 ------- 0 1.0 4.0 530 562
r 3.197 3 4 cbr 500 ------- 0 1.0 4.0 531 563
r 3.202 3 4 cbr 500 ------- 0 1.0 4.0 532 564
r 3.207 3 4 cbr 500 ------- 0 1.0 4.0 533 565
r 3.212 3 4 cbr 500 ------- 0 1.0 4.0 534 566
r 3.217 3 4 cbr 500 ------- 0 1.0 4.0 535 567
r 3.222 3 4 cbr 500 ------- 0 1.0 4.0 536 568
r 3.227 3 4 cbr 500 ------- 0 1.0 4.0 537 569
r 3.232 3 4 cbr 500 ------- 0 1.0 4.0 538 570
r 3.237 3 4 cbr 500 ------- 0 1.0 4.0 539 571
r 3.242 3 4 cbr 500 ------- 0 1.0 4.0 540 572
r 3.247 3 4 cbr 500 ------- 0 1.0 4.0 541 573
r 3.252 3 4 cbr 500 ------- 0 1.0 4.0 542 574
r 3.257 3 4 cbr 500 ------- 0 1.0 4.0 543 575
r 3.262 3 4 cbr 500 ------- 0 1.0 4.0 544 576
r 3.267 3 4 cbr 500 ------- 0 1.0 4.0 545 577
r 3.272 3 4 cbr 500 ------- 0 1.0 4.0 546 578
r 3.277 3 4 cbr 500 ------- 0 1.0 4.0 547 579
r 3.282 3 4 cbr 500 ------- 0 1.0 4.0 548 580
r 3.287 3 4 cbr 500 ------- 0 1.0 4.0 549 581
r 3.292 3 4 cbr 500 ------- 0 1.0 4.0 550 582
r 3.297 3 4 cbr 500 ------- 0 1.0 4.0 551 583
r 3.302 3 4 cbr 500 ------- 0 1.0 4.0 552 584
r 3.307 3 4 cbr 500 ------- 0 1.0 4.0 553 585
r 3.312 3 4 cbr 500 ------- 0 1.0 4.0 554 586
r 3.317 3 4 cbr 500 ------- 0 1.0 4.0 555 587
r 3.322 3 4 cbr 500 ------- 0 1.0 4.0 556 588
r 3.327 3 4 cbr 500 ------- 0 1.0 4.0 557 589
r 3.332 3 4 cbr 500 ------- 0 1.0 4.0 558 590
r 3.337 3 4 cbr 500 ------- 0 1.0 4.0 559 591
r 3.342 3 4 cbr 500 ------- 0 1.0 4.0 560 592
r 3.347 3 4 cbr 500 ------- 0 1.0 4.0 561 593
r 3.352 3 4 cbr 500 ------- 0 1.0 4.0 562 594
r 3.357 3 4 cbr 500 ------- 0 1.0 4.0 563 595
r 3.362 3 4 cbr 500 ------- 0 1.0 4.0 564 596
r 3.367 3 4 cbr 500 ------- 0 1.0 4.0 565 597
r 3.372 3 4 cbr 500 ------- 0 1.0 4.0 566 598
r 3.377 3 4 cbr 500 ------- 0 1.0 4.0 567 599
r 3.382 3 4 cbr 500 ------- 0 1.0 4.0 568 600
r 3.387 3 4 cbr 500 ------- 0 1.0 4.0 569 601
r 3.392 3 4 cbr 500 ------- 0 1.0 4.0 570 602
r 3.397 3 4 cbr 500 ------- 0 1.0 4.0 571 603
r 3.402 3 4 cbr 500 ------- 0 1.0 4.0 572 604
r 3.407 3 4 cbr 500 ------- 0 1.0 4.0 573 605
r 3.412 3 4 cbr 500 ------- 0 1.0 4.0 574 606
r 3.417 3 4 cbr 500 ------- 0 1.0 4.0 575 607
r 3.422 3 4 cbr 500 ------- 0 1.0 4.0 576 608
r 3.427 3 4 cbr 500 ------- 0 1.0 4.0 577 609
r 3.432 3 4 cbr 500 ------- 0 1.0 4.0 578 610
r 3.437 3 4 cbr 500 ------- 0 1.0 4.0 579 611
r 3.442 3 4 cbr 500 ------- 0 1.0 4.0 580 612
r 3.447 3 4 cbr 500 ------- 0 1.0 4.0 581 613
r 3.452 3 4 cbr 500 ------- 0 1.0 4.0 582 614
r 3.457 3 4 cbr 500 ------- 0 1.0 4.0 583 615
r 3.462 3 4 cbr 500 ------- 0 1.0 4.0 584 616
r 3.467 3 4 cbr 500 ------- 0 1.0 4.0 585 617
r 3.472 3 4 cbr 500 ------- 0 1.0 4.0 586 618
r 3.477 3 4 cbr 500 ------- 0 1.0 4.0 587 619
r 3.482 3 4 cbr 500 ------- 0 1.0 4.0 588 620
r 3.487 3 4 cbr 500 ------- 0 1.0 4.0 589 621
r 3.492 3 4 cbr 500 ------- 0 1.0 4.0 590 622
r 3.497 3 4 cbr 500 ------- 0 1.0 4.0 591 623
r 3.502 3 4 cbr 500 ------- 0 1.0 4.0 592 624
r 3.507 3 4 cbr 500 ------- 0 1.0 4.0 593 625
r 3.512 3 4 cbr 500 ------- 0 1.0 4.0 594 626
r 3.517 3 4 cbr 500 ------- 0 1.0 4.0 595 627
r 3.522 3 4 cbr 500 ------- 0 1.0 4.0 596 628
r 3.527 3 4 cbr 500 ------- 0 1.0 4.0 597 629
r 3.532 3 4 cbr 500 ------- 0 1.0 4.0 598 630
r 3.537 3 4 cbr 500 ------- 0 1.0 4.0 599 631
r 3.542 3 4 cbr 500 ------- 0 1.0 4.0 600 632
r 3.547 3 4 cbr 500 ------- 0 1.0 4.0 601 633
r 3.552 3 4 cbr 500 ------- 0 1.0 4.0 602 634
r 3.557 3 4 cbr 500 ------- 0 1.0 4.0 603 635
r 3.562 3 4 cbr 500 ------- 0 1.0 4.0 604 636
r 3.567 3 4 cbr 500 ------- 0 1.0 4.0 605 637
r 3.572 3 4 cbr 500 ------- 0 1.0 4.0 606 638
r 3.577 3 4 cbr 500 ------- 0 1.0 4.0 607 639
r 3.582 3 4 cbr 500 ------- 0 1.0 4.0 608 640
r 3.587 3 4 cbr 500 ------- 0 1.0 4.0 609 641
r 3.592 3 4 cbr 500 ------- 0 1.0 4.0 610 642
r 3.597 3 4 cbr 500 ------- 0 1.0 4.0 611 643
r 3.602 3 4 cbr 500 ------- 0 1.0 4.0 612 644
r 3.607 3 4 cbr 500 ------- 0 1.0 4.0 613 645
r 3.612 3 4 cbr 500 ------- 0 1.0 4.0 614 646
r 3.617 3 4 cbr 500 ------- 0 1.0 4.0 615 647
r 3.622 3 4 cbr 500 ------- 0 1.0 4.0 616 648
r 3.627 3 4 cbr 500 ------- 0 1.0 4.0 617 649
r 3.632 3 4 cbr 500 ------- 0 1.0 4.0 618 650
r 3.637 3 4 cbr 500 ------- 0 1.0 4.0 619 651
r 3.642 3 4 cbr 500 ------- 0 1.0 4.0 620 652
r 3.647 3 4 cbr 500 ------- 0 1.0 4.0 621 653
r 3.652 3 4 cbr 500 ------- 0 1.0 4.0 622 654
r 3.657 3 4 cbr 500 ------- 0 1.0 4.0 623 655
r 3.662 3 4 cbr 500 ------- 0 1.0 4.0 624 656
r 3.667 3 4 cbr 500 ------- 0 1.0 4.0 625 657
r 3.672 3 4 cbr 500 ------- 0 1.0 4.0 626 658
r 3.677 3 4 cbr 500 ------- 0 1.0 4.0 627 659
r 3.682 3 4 cbr 500 ------- 0 1.0 4.0 628 660
r 3.687 3 4 cbr 500 ------- 0 1.0 4.0 629 661
r 3.692 3 4 cbr 500 ------- 0 1.0 4.0 630 662
r 3.697 3 4 cbr 500 ------- 0 1.0 4.0 631 663
r 3.702 3 4 cbr 500 ------- 0 1.0 4.0 632 664
r 3.707 3 4 cbr 500 ------- 0 1.0 4.0 633 665
r 3.712 3 4 cbr 500 ------- 0 1.0 4.0 634 666
r 3.717 3 4 cbr 500 ------- 0 1.0 4.0 635 667
r 3.722 3 4 cbr 500 ------- 0 1.0 4.0 636 668
r 3.727 3 4 cbr 500 ------- 0 1.0 4.0 637 669
r 3.732 3 4 cbr 500 ------- 0 1.0 4.0 638 670
r 3.737 3 4 cbr 500 ------- 0 1.0 4.0 639 671
r 3.742 3 4 cbr 500 ------- 0 1.0 4.0 640 672
r 3.747 3 4 cbr 500 ------- 0 1.0 4.0 641 673
r 3.752 3 4 cbr 500 ------- 0 1.0 4.0 642 674
r 3.757 3 4 cbr 500 ------- 0 1.0 4.0 643 675
r 3.762 3 4 cbr 500 ------- 0 1.0 4.0 644 676
r 3.767 3 4 cbr 500 ------- 0 1.0 4.0 645 677
r 3.772 3 4 cbr 500 ------- 0 1.0 4.0 646 678
r 3.777 3 4 cbr 500 ------- 0 1.0 4.0 647 679
r 3.782 3 4 cbr 500 ------- 0 1.0 4.0 648 680
r 3.787 3 4 cbr 500 ------- 0 1.0 4.0 649 681
r 3.792 3 4 cbr 500 ------- 0 1.0 4.0 650 682