V -t * -v 1.0a5 -a 0
W -t * -x 500 -y 500
A -t * -n 1 -p 0 -o 0x7fffffff -c 30 -a 1
A -t * -h 1 -m 1073741823 -s 0
+ -t 0.031538939 -s 1 -d -1 -p message -e 32 -c 2 -a 0 -i 0 -k RTR 
- -t 0.031538939 -s 1 -d -1 -p message -e 32 -c 2 -a 0 -i 0 -k RTR
h -t 0.031538939 -s 1 -d -1 -p message -e 32 -c 2 -a 0 -i 0 -k RTR
r -t 0.032599297 -s 3 -d -1 -p message -e 32 -c 2 -a 0 -i 0 -k RTR
r -t 0.032599505 -s 2 -d -1 -p message -e 32 -c 2 -a 0 -i 0 -k RTR
r -t 0.032599634 -s 4 -d -1 -p message -e 32 -c 2 -a 0 -i 0 -k RTR
r -t 0.032599709 -s 0 -d -1 -p message -e 32 -c 2 -a 0 -i 0 -k RTR
+ -t 0.179336133 -s 2 -d -1 -p message -e 32 -c 2 -a 0 -i 1 -k RTR 
- -t 0.179336133 -s 2 -d -1 -p message -e 32 -c 2 -a 0 -i 1 -k RTR
h -t 0.179336133 -s 2 -d -1 -p message -e 32 -c 2 -a 0 -i 1 -k RTR
r -t 0.180196391 -s 4 -d -1 -p message -e 32 -c 2 -a 0 -i 1 -k RTR
r -t 0.180196392 -s 3 -d -1 -p message -e 32 -c 2 -a 0 -i 1 -k RTR
r -t 0.180196699 -s 1 -d -1 -p message -e 32 -c 2 -a 0 -i 1 -k RTR
r -t 0.180196876 -s 0 -d -1 -p message -e 32 -c 2 -a 0 -i 1 -k RTR
+ -t 0.888747441 -s 3 -d -1 -p message -e 32 -c 2 -a 0 -i 2 -k RTR 
- -t 0.888747441 -s 3 -d -1 -p message -e 32 -c 2 -a 0 -i 2 -k RTR
h -t 0.888747441 -s 3 -d -1 -p message -e 32 -c 2 -a 0 -i 2 -k RTR
r -t 0.889807699 -s 2 -d -1 -p message -e 32 -c 2 -a 0 -i 2 -k RTR
r -t 0.889807798 -s 1 -d -1 -p message -e 32 -c 2 -a 0 -i 2 -k RTR
r -t 0.889807922 -s 4 -d -1 -p message -e 32 -c 2 -a 0 -i 2 -k RTR
r -t 0.889808262 -s 0 -d -1 -p message -e 32 -c 2 -a 0 -i 2 -k RTR
+ -t 1.113509485 -s 0 -d -1 -p message -e 32 -c 2 -a 0 -i 3 -k RTR 
- -t 1.113509485 -s 0 -d -1 -p message -e 32 -c 2 -a 0 -i 3 -k RTR
h -t 1.113509485 -s 0 -d -1 -p message -e 32 -c 2 -a 0 -i 3 -k RTR
r -t 1.114650051 -s 4 -d -1 -p message -e 32 -c 2 -a 0 -i 3 -k RTR
r -t 1.114650227 -s 2 -d -1 -p message -e 32 -c 2 -a 0 -i 3 -k RTR
r -t 1.114650255 -s 1 -d -1 -p message -e 32 -c 2 -a 0 -i 3 -k RTR
r -t 1.114650306 -s 3 -d -1 -p message -e 32 -c 2 -a 0 -i 3 -k RTR
+ -t 1.600891786 -s 4 -d -1 -p message -e 32 -c 2 -a 0 -i 4 -k RTR 
- -t 1.600891786 -s 4 -d -1 -p message -e 32 -c 2 -a 0 -i 4 -k RTR
h -t 1.600891786 -s 4 -d -1 -p message -e 32 -c 2 -a 0 -i 4 -k RTR
r -t 1.601952044 -s 2 -d -1 -p message -e 32 -c 2 -a 0 -i 4 -k RTR
r -t 1.601952267 -s 3 -d -1 -p message -e 32 -c 2 -a 0 -i 4 -k RTR
r -t 1.601952353 -s 0 -d -1 -p message -e 32 -c 2 -a 0 -i 4 -k RTR
r -t 1.601952482 -s 1 -d -1 -p message -e 32 -c 2 -a 0 -i 4 -k RTR
n -t 5.000000 -s 0 -x 240.000000 -y 1.000000 -U -1.775946 -V 2.417854 -T 46.735663
n -t 10.000000 -s 1 -x 242.000000 -y 232.000000 -U -7.893905 -V 1.298564 -T 29.263085
+ -t 10.000000000 -s 0 -d -1 -p tcp -e 40 -c 2 -a 0 -i 5 -k AGT 
- -t 10.000000000 -s 0 -d -1 -p tcp -e 40 -c 2 -a 0 -i 5 -k AGT
h -t 10.000000000 -s 0 -d -1 -p tcp -e 40 -c 2 -a 0 -i 5 -k AGT
+ -t 10.000000000 -s 0 -d 4 -p tcp -e 60 -c 2 -a 0 -i 5 -k RTR 
- -t 10.000000000 -s 0 -d 4 -p tcp -e 60 -c 2 -a 0 -i 5 -k RTR
h -t 10.000000000 -s 0 -d 4 -p tcp -e 60 -c 2 -a 0 -i 5 -k RTR
r -t 10.004934644 -s 4 -d 4 -p tcp -e 60 -c 2 -a 0 -i 5 -k AGT
+ -t 10.004934644 -s 4 -d -1 -p ack -e 40 -c 2 -a 0 -i 6 -k AGT 
- -t 10.004934644 -s 4 -d -1 -p ack -e 40 -c 2 -a 0 -i 6 -k AGT
h -t 10.004934644 -s 4 -d -1 -p ack -e 40 -c 2 -a 0 -i 6 -k AGT
+ -t 10.004934644 -s 4 -d 0 -p ack -e 60 -c 2 -a 0 -i 6 -k RTR 
- -t 10.004934644 -s 4 -d 0 -p ack -e 60 -c 2 -a 0 -i 6 -k RTR
h -t 10.004934644 -s 4 -d 0 -p ack -e 60 -c 2 -a 0 -i 6 -k RTR
r -t 10.007300206 -s 0 -d 0 -p ack -e 60 -c 2 -a 0 -i 6 -k AGT
+ -t 10.007300206 -s 0 -d -1 -p tcp -e 1040 -c 2 -a 0 -i 7 -k AGT 
- -t 10.007300206 -s 0 -d -1 -p tcp -e 1040 -c 2 -a 0 -i 7 -k AGT
h -t 10.007300206 -s 0 -d -1 -p tcp -e 1040 -c 2 -a 0 -i 7 -k AGT
+ -t 10.007300206 -s 0 -d 4 -p tcp -e 1060 -c 2 -a 0 -i 7 -k RTR 
- -t 10.007300206 -s 0 -d 4 -p tcp -e 1060 -c 2 -a 0 -i 7 -k RTR
h -t 10.007300206 -s 0 -d 4 -p tcp -e 1060 -c 2 -a 0 -i 7 -k RTR
+ -t 10.007300206 -s 0 -d -1 -p tcp -e 1040 -c 2 -a 0 -i 8 -k AGT 
- -t 10.007300206 -s 0 -d -1 -p tcp -e 1040 -c 2 -a 0 -i 8 -k AGT
h -t 10.007300206 -s 0 -d -1 -p tcp -e 1040 -c 2 -a 0 -i 8 -k AGT
+ -t 10.007300206 -s 0 -d 4 -p tcp -e 1060 -c 2 -a 0 -i 8 -k RTR 
- -t 10.007300206 -s 0 -d 4 -p tcp -e 1060 -c 2 -a 0 -i 8 -k RTR
h -t 10.007300206 -s 0 -d 4 -p tcp -e 1060 -c 2 -a 0 -i 8 -k RTR
r -t 10.017325767 -s 4 -d 4 -p tcp -e 1060 -c 2 -a 0 -i 7 -k AGT
+ -t 10.017325767 -s 4 -d -1 -p ack -e 40 -c 2 -a 0 -i 9 -k AGT 
- -t 10.017325767 -s 4 -d -1 -p ack -e 40 -c 2 -a 0 -i 9 -k AGT
h -t 10.017325767 -s 4 -d -1 -p ack -e 40 -c 2 -a 0 -i 9 -k AGT
+ -t 10.017325767 -s 4 -d 0 -p ack -e 60 -c 2 -a 0 -i 9 -k RTR 
- -t 10.017325767 -s 4 -d 0 -p ack -e 60 -c 2 -a 0 -i 9 -k RTR
h -t 10.017325767 -s 4 -d 0 -p ack -e 60 -c 2 -a 0 -i 9 -k RTR
r -t 10.019591329 -s 0 -d 0 -p ack -e 60 -c 2 -a 0 -i 9 -k AGT
+ -t 10.019591329 -s 0 -d -1 -p tcp -e 1040 -c 2 -a 0 -i 10 -k AGT 
- -t 10.019591329 -s 0 -d -1 -p tcp -e 1040 -c 2 -a 0 -i 10 -k AGT
h -t 10.019591329 -s 0 -d -1 -p tcp -e 1040 -c 2 -a 0 -i 10 -k AGT
+ -t 10.019591329 -s 0 -d 4 -p tcp -e 1060 -c 2 -a 0 -i 10 -k RTR 
- -t 10.019591329 -s 0 -d 4 -p tcp -e 1060 -c 2 -a 0 -i 10 -k RTR
h -t 10.019591329 -s 0 -d 4 -p tcp -e 1060 -c 2 -a 0 -i 10 -k RTR
+ -t 10.019591329 -s 0 -d -1 -p tcp -e 1040 -c 2 -a 0 -i 11 -k AGT 
- -t 10.019591329 -s 0 -d -1 -p tcp -e 1040 -c 2 -a 0 -i 11 -k AGT
h -t 10.019591329 -s 0 -d -1 -p tcp -e 1040 -c 2 -a 0 -i 11 -k AGT
+ -t 10.019591329 -s 0 -d 4 -p tcp -e 1060 -c 2 -a 0 -i 11 -k RTR 
- -t 10.019591329 -s 0 -d 4 -p tcp -e 1060 -c 2 -a 0 -i 11 -k RTR
h -t 10.019591329 -s 0 -d 4 -p tcp -e 1060 -c 2 -a 0 -i 11 -k RTR
r -t 10.029676890 -s 4 -d 4 -p tcp -e 1060 -c 2 -a 0 -i 8 -k AGT
+ -t 10.029676890 -s 4 -d -1 -p ack -e 40 -c 2 -a 0 -i 12 -k AGT 
- -t 10.029676890 -s 4 -d -1 -p ack -e 40 -c 2 -a 0 -i 12 -k AGT
h -t 10.029676890 -s 4 -d -1 -p ack -e 40 -c 2 -a 0 -i 12 -k AGT
+ -t 10.029676890 -s 4 -d 0 -p ack -e 60 -c 2 -a 0 -i 12 -k RTR 
- -t 10.029676890 -s 4 -d 0 -p ack -e 60 -c 2 -a 0 -i 12 -k RTR
h -t 10.029676890 -s 4 -d 0 -p ack -e 60 -c 2 -a 0 -i 12 -k RTR
r -t 10.031722451 -s 0 -d 0 -p ack -e 60 -c 2 -a 0 -i 12 -k AGT
+ -t 10.031722451 -s 0 -d -1 -p tcp -e 1040 -c 2 -a 0 -i 13 -k AGT 
- -t 10.031722451 -s 0 -d -1 -p tcp -e 1040 -c 2 -a 0 -i 13 -k AGT
h -t 10.031722451 -s 0 -d -1 -p tcp -e 1040 -c 2 -a 0 -i 13 -k AGT
+ -t 10.031722451 -s 0 -d 4 -p tcp -e 1060 -c 2 -a 0 -i 13 -k RTR 
- -t 10.031722451 -s 0 -d 4 -p tcp -e 1060 -c 2 -a 0 -i 13 -k RTR
h -t 10.031722451 -s 0 -d 4 -p tcp -e 1060 -c 2 -a 0 -i 13 -k RTR
+ -t 10.031722451 -s 0 -d -1 -p tcp -e 1040 -c 2 -a 0 -i 14 -k AGT 
- -t 10.031722451 -s 0 -d -1 -p tcp -e 1040 -c 2 -a 0 -i 14 -k AGT
h -t 10.031722451 -s 0 -d -1 -p tcp -e 1040 -c 2 -a 0 -i 14 -k AGT
+ -t 10.031722451 -s 0 -d 4 -p tcp -e 1060 -c 2 -a 0 -i 14 -k RTR 
- -t 10.031722451 -s 0 -d 4 -p tcp -e 1060 -c 2 -a 0 -i 14 -k RTR
h -t 10.031722451 -s 0 -d 4 -p tcp -e 1060 -c 2 -a 0 -i 14 -k RTR
r -t 10.041748012 -s 4 -d 4 -p tcp -e 1060 -c 2 -a 0 -i 10 -k AGT
+ -t 10.041748012 -s 4 -d -1 -p ack -e 40 -c 2 -a 0 -i 15 -k AGT 
- -t 10.041748012 -s 4 -d -1 -p ack -e 40 -c 2 -a 0 -i 15 -k AGT
h -t 10.041748012 -s 4 -d -1 -p ack -e 40 -c 2 -a 0 -i 15 -k AGT
+ -t 10.041748012 -s 4 -d 0 -p ack -e 60 -c 2 -a 0 -i 15 -k RTR 
- -t 10.041748012 -s 4 -d 0 -p ack -e 60 -c 2 -a 0 -i 15 -k RTR
h -t 10.041748012 -s 4 -d 0 -p ack -e 60 -c 2 -a 0 -i 15 -k RTR
r -t 10.051934093 -s 4 -d 4 -p tcp -e 1060 -c 2 -a 0 -i 11 -k AGT
+ -t 10.051934093 -s 4 -d -1 -p ack -e 40 -c 2 -a 0 -i 16 -k AGT 
- -t 10.051934093 -s 4 -d -1 -p ack -e 40 -c 2 -a 0 -i 16 -k AGT
h -t 10.051934093 -s 4 -d -1 -p ack -e 40 -c 2 -a 0 -i 16 -k AGT
+ -t 10.051934093 -s 4 -d 0 -p ack -e 60 -c 2 -a 0 -i 16 -k RTR 
- -t 10.051934093 -s 4 -d 0 -p ack -e 60 -c 2 -a 0 -i 16 -k RTR
h -t 10.051934093 -s 4 -d 0 -p ack -e 60 -c 2 -a 0 -i 16 -k RTR
r -t 10.053979653 -s 0 -d 0 -p ack -e 60 -c 2 -a 0 -i 15 -k AGT
+ -t 10.053979653 -s 0 -d -1 -p tcp -e 1040 -c 2 -a 0 -i 17 -k AGT 
- -t 10.053979653 -s 0 -d -1 -p tcp -e 1040 -c 2 -a 0 -i 17 -k AGT
h -t 10.053979653 -s 0 -d -1 -p tcp -e 1040 -c 2 -a 0 -i 17 -k AGT
+ -t 10.053979653 -s 0 -d 4 -p tcp -e 1060 -c 2 -a 0 -i 17 -k RTR 
- -t 10.053979653 -s 0 -d 4 -p tcp -e 1060 -c 2 -a 0 -i 17 -k RTR
h -t 10.053979653 -s 0 -d 4 -p tcp -e 1060 -c 2 -a 0 -i 17 -k RTR
+ -t 10.053979653 -s 0 -d -1 -p tcp -e 1040 -c 2 -a 0 -i 18 -k AGT 
- -t 10.053979653 -s 0 -d -1 -p tcp -e 1040 -c 2 -a 0 -i 18 -k AGT
h -t 10.053979653 -s 0 -d -1 -p tcp -e 1040 -c 2 -a 0 -i 18 -k AGT
+ -t 10.053979653 -s 0 -d 4 -p tcp -e 1060 -c 2 -a 0 -i 18 -k RTR 
- -t 10.053979653 -s 0 -d 4 -p tcp -e 1060 -c 2 -a 0 -i 18 -k RTR
h -t 10.053979653 -s 0 -d 4 -p tcp -e 1060 -c 2 -a 0 -i 18 -k RTR
r -t 10.064025214 -s 4 -d 4 -p tcp -e 1060 -c 2 -a 0 -i 13 -k AGT
+ -t 10.064025214 -s 4 -d -1 -p ack -e 40 -c 2 -a 0 -i 19 -k AGT 
- -t 10.064025214 -s 4 -d -1 -p ack -e 40 -c 2 -a 0 -i 19 -k AGT
h -t 10.064025214 -s 4 -d -1 -p ack -e 40 -c 2 -a 0 -i 19 -k AGT
+ -t 10.064025214 -s 4 -d 0 -p ack -e 60 -c 2 -a 0 -i 19 -k RTR 
- -t 10.064025214 -s 4 -d 0 -p ack -e 60 -c 2 -a 0 -i 19 -k RTR
h -t 10.064025214 -s 4 -d 0 -p ack -e 60 -c 2 -a 0 -i 19 -k RTR
r -t 10.074231294 -s 4 -d 4 -p tcp -e 1060 -c 2 -a 0 -i 14 -k AGT
+ -t 10.074231294 -s 4 -d -1 -p ack -e 40 -c 2 -a 0 -i 20 -k AGT 
- -t 10.074231294 -s 4 -d -1 -p ack -e 40 -c 2 -a 0 -i 20 -k AGT
h -t 10.074231294 -s 4 -d -1 -p ack -e 40 -c 2 -a 0 -i 20 -k AGT
+ -t 10.074231294 -s 4 -d 0 -p ack -e 60 -c 2 -a 0 -i 20 -k RTR 
- -t 10.074231294 -s 4 -d 0 -p ack -e 60 -c 2 -a 0 -i 20 -k RTR
h -t 10.074231294 -s 4 -d 0 -p ack -e 60 -c 2 -a 0 -i 20 -k RTR
r -t 10.084417374 -s 4 -d 4 -p tcp -e 1060 -c 2 -a 0 -i 17 -k AGT
+ -t 10.084417374 -s 4 -d -1 -p ack -e 40 -c 2 -a 0 -i 21 -k AGT 
- -t 10.084417374 -s 4 -d -1 -p ack -e 40 -c 2 -a 0 -i 21 -k AGT
h -t 10.084417374 -s 4 -d -1 -p ack -e 40 -c 2 -a 0 -i 21 -k AGT
+ -t 10.084417374 -s 4 -d 0 -p ack -e 60 -c 2 -a 0 -i 21 -k RTR 
- -t 10.084417374 -s 4 -d 0 -p ack -e 60 -c 2 -a 0 -i 21 -k RTR
h -t 10.084417374 -s 4 -d 0 -p ack -e 60 -c 2 -a 0 -i 21 -k RTR
r -t 10.086462933 -s 0 -d 0 -p ack -e 60 -c 2 -a 0 -i 16 -k AGT
+ -t 10.086462933 -s 0 -d -1 -p tcp -e 1040 -c 2 -a 0 -i 22 -k AGT 
- -t 10.086462933 -s 0 -d -1 -p tcp -e 1040 -c 2 -a 0 -i 22 -k AGT
h -t 10.086462933 -s 0 -d -1 -p tcp -e 1040 -c 2 -a 0 -i 22 -k AGT
+ -t 10.086462933 -s 0 -d 4 -p tcp -e 1060 -c 2 -a 0 -i 22 -k RTR 
- -t 10.086462933 -s 0 -d 4 -p tcp -e 1060 -c 2 -a 0 -i 22 -k RTR
h -t 10.086462933 -s 0 -d 4 -p tcp -e 1060 -c 2 -a 0 -i 22 -k RTR
+ -t 10.086462933 -s 0 -d -1 -p tcp -e 1040 -c 2 -a 0 -i 23 -k AGT 
- -t 10.086462933 -s 0 -d -1 -p tcp -e 1040 -c 2 -a 0 -i 23 -k AGT
h -t 10.086462933 -s 0 -d -1 -p tcp -e 1040 -c 2 -a 0 -i 23 -k AGT
+ -t 10.086462933 -s 0 -d 4 -p tcp -e 1060 -c 2 -a 0 -i 23 -k RTR 
- -t 10.086462933 -s 0 -d 4 -p tcp -e 1060 -c 2 -a 0 -i 23 -k RTR
h -t 10.086462933 -s 0 -d 4 -p tcp -e 1060 -c 2 -a 0 -i 23 -k RTR
r -t 10.088509012 -s 0 -d 0 -p ack -e 60 -c 2 -a 0 -i 19 -k AGT
+ -t 10.088509012 -s 0 -d -1 -p tcp -e 1040 -c 2 -a 0 -i 24 -k AGT 
- -t 10.088509012 -s 0 -d -1 -p tcp -e 1040 -c 2 -a 0 -i 24 -k AGT
h -t 10.088509012 -s 0 -d -1 -p tcp -e 1040 -c 2 -a 0 -i 24 -k AGT
+ -t 10.088509012 -s 0 -d 4 -p tcp -e 1060 -c 2 -a 0 -i 24 -k RTR 
- -t 10.088509012 -s 0 -d 4 -p tcp -e 1060 -c 2 -a 0 -i 24 -k RTR
h -t 10.088509012 -s 0 -d 4 -p tcp -e 1060 -c 2 -a 0 -i 24 -k RTR
+ -t 10.088509012 -s 0 -d -1 -p tcp -e 1040 -c 2 -a 0 -i 25 -k AGT 
- -t 10.088509012 -s 0 -d -1 -p tcp -e 1040 -c 2 -a 0 -i 25 -k AGT
h -t 10.088509012 -s 0 -d -1 -p tcp -e 1040 -c 2 -a 0 -i 25 -k AGT
+ -t 10.088509012 -s 0 -d 4 -p tcp -e 1060 -c 2 -a 0 -i 25 -k RTR 
- -t 10.088509012 -s 0 -d 4 -p tcp -e 1060 -c 2 -a 0 -i 25 -k RTR
h -t 10.088509012 -s 0 -d 4 -p tcp -e 1060 -c 2 -a 0 -i 25 -k RTR
r -t 10.090615092 -s 0 -d 0 -p ack -e 60 -c 2 -a 0 -i 20 -k AGT
+ -t 10.090615092 -s 0 -d -1 -p tcp -e 1040 -c 2 -a 0 -i 26 -k AGT 
- -t 10.090615092 -s 0 -d -1 -p tcp -e 1040 -c 2 -a 0 -i 26 -k AGT
h -t 10.090615092 -s 0 -d -1 -p tcp -e 1040 -c 2 -a 0 -i 26 -k AGT
+ -t 10.090615092 -s 0 -d 4 -p tcp -e 1060 -c 2 -a 0 -i 26 -k RTR 
- -t 10.090615092 -s 0 -d 4 -p tcp -e 1060 -c 2 -a 0 -i 26 -k RTR
h -t 10.090615092 -s 0 -d 4 -p tcp -e 1060 -c 2 -a 0 -i 26 -k RTR
+ -t 10.090615092 -s 0 -d -1 -p tcp -e 1040 -c 2 -a 0 -i 27 -k AGT 
- -t 10.090615092 -s 0 -d -1 -p tcp -e 1040 -c 2 -a 0 -i 27 -k AGT
h -t 10.090615092 -s 0 -d -1 -p tcp -e 1040 -c 2 -a 0 -i 27 -k AGT
+ -t 10.090615092 -s 0 -d 4 -p tcp -e 1060 -c 2 -a 0 -i 27 -k RTR 
- -t 10.090615092 -s 0 -d 4 -p tcp -e 1060 -c 2 -a 0 -i 27 -k RTR
h -t 10.090615092 -s 0 -d 4 -p tcp -e 1060 -c 2 -a 0 -i 27 -k RTR
r -t 10.092941171 -s 0 -d 0 -p ack -e 60 -c 2 -a 0 -i 21 -k AGT
+ -t 10.092941171 -s 0 -d -1 -p tcp -e 1040 -c 2 -a 0 -i 28 -k AGT 
- -t 10.092941171 -s 0 -d -1 -p tcp -e 1040 -c 2 -a 0 -i 28 -k AGT
h -t 10.092941171 -s 0 -d -1 -p tcp -e 1040 -c 2 -a 0 -i 28 -k AGT
+ -t 10.092941171 -s 0 -d 4 -p tcp -e 1060 -c 2 -a 0 -i 28 -k RTR 
- -t 10.092941171 -s 0 -d 4 -p tcp -e 1060 -c 2 -a 0 -i 28 -k RTR
h -t 10.092941171 -s 0 -d 4 -p tcp -e 1060 -c 2 -a 0 -i 28 -k RTR
+ -t 10.092941171 -s 0 -d -1 -p tcp -e 1040 -c 2 -a 0 -i 29 -k AGT 
- -t 10.092941171 -s 0 -d -1 -p tcp -e 1040 -c 2 -a 0 -i 29 -k AGT
h -t 10.092941171 -s 0 -d -1 -p tcp -e 1040 -c 2 -a 0 -i 29 -k AGT
+ -t 10.092941171 -s 0 -d 4 -p tcp -e 1060 -c 2 -a 0 -i 29 -k RTR 
- -t 10.092941171 -s 0 -d 4 -p tcp -e 1060 -c 2 -a 0 -i 29 -k RTR
h -t 10.092941171 -s 0 -d 4 -p tcp -e 1060 -c 2 -a 0 -i 29 -k RTR
r -t 10.102946730 -s 4 -d 4 -p tcp -e 1060 -c 2 -a 0 -i 18 -k AGT
+ -t 10.102946730 -s 4 -d -1 -p ack -e 40 -c 2 -a 0 -i 30 -k AGT 
- -t 10.102946730 -s 4 -d -1 -p ack -e 40 -c 2 -a 0 -i 30 -k AGT
h -t 10.102946730 -s 4 -d -1 -p ack -e 40 -c 2 -a 0 -i 30 -k AGT
+ -t 10.102946730 -s 4 -d 0 -p ack -e 60 -c 2 -a 0 -i 30 -k RTR 
- -t 10.102946730 -s 4 -d 0 -p ack -e 60 -c 2 -a 0 -i 30 -k RTR
h -t 10.102946730 -s 4 -d 0 -p ack -e 60 -c 2 -a 0 -i 30 -k RTR
r -t 10.113212809 -s 4 -d 4 -p tcp -e 1060 -c 2 -a 0 -i 22 -k AGT
+ -t 10.113212809 -s 4 -d -1 -p ack -e 40 -c 2 -a 0 -i 31 -k AGT 
- -t 10.113212809 -s 4 -d -1 -p ack -e 40 -c 2 -a 0 -i 31 -k AGT
h -t 10.113212809 -s 4 -d -1 -p ack -e 40 -c 2 -a 0 -i 31 -k AGT
+ -t 10.113212809 -s 4 -d 0 -p ack -e 60 -c 2 -a 0 -i 31 -k RTR 
- -t 10.113212809 -s 4 -d 0 -p ack -e 60 -c 2 -a 0 -i 31 -k RTR
h -t 10.113212809 -s 4 -d 0 -p ack -e 60 -c 2 -a 0 -i 31 -k RTR
r -t 10.123378887 -s 4 -d 4 -p tcp -e 1060 -c 2 -a 0 -i 23 -k AGT
+ -t 10.123378887 -s 4 -d -1 -p ack -e 40 -c 2 -a 0 -i 32 -k AGT 
- -t 10.123378887 -s 4 -d -1 -p ack -e 40 -c 2 -a 0 -i 32 -k AGT
h -t 10.123378887 -s 4 -d -1 -p ack -e 40 -c 2 -a 0 -i 32 -k AGT
+ -t 10.123378887 -s 4 -d 0 -p ack -e 60 -c 2 -a 0 -i 32 -k RTR 
- -t 10.123378887 -s 4 -d 0 -p ack -e 60 -c 2 -a 0 -i 32 -k RTR
h -t 10.123378887 -s 4 -d 0 -p ack -e 60 -c 2 -a 0 -i 32 -k RTR
r -t 10.125404446 -s 0 -d 0 -p ack -e 60 -c 2 -a 0 -i 30 -k AGT
+ -t 10.125404446 -s 0 -d -1 -p tcp -e 1040 -c 2 -a 0 -i 33 -k AGT 
- -t 10.125404446 -s 0 -d -1 -p tcp -e 1040 -c 2 -a 0 -i 33 -k AGT
h -t 10.125404446 -s 0 -d -1 -p tcp -e 1040 -c 2 -a 0 -i 33 -k AGT
+ -t 10.125404446 -s 0 -d 4 -p tcp -e 1060 -c 2 -a 0 -i 33 -k RTR 
- -t 10.125404446 -s 0 -d 4 -p tcp -e 1060 -c 2 -a 0 -i 33 -k RTR
h -t 10.125404446 -s 0 -d 4 -p tcp -e 1060 -c 2 -a 0 -i 33 -k RTR
+ -t 10.125404446 -s 0 -d -1 -p tcp -e 1040 -c 2 -a 0 -i 34 -k AGT 
- -t 10.125404446 -s 0 -d -1 -p tcp -e 1040 -c 2 -a 0 -i 34 -k AGT
h -t 10.125404446 -s 0 -d -1 -p tcp -e 1040 -c 2 -a 0 -i 34 -k AGT
+ -t 10.125404446 -s 0 -d 4 -p tcp -e 1060 -c 2 -a 0 -i 34 -k RTR 
- -t 10.125404446 -s 0 -d 4 -p tcp -e 1060 -c 2 -a 0 -i 34 -k RTR
h -t 10.125404446 -s 0 -d 4 -p tcp -e 1060 -c 2 -a 0 -i 34 -k RTR
r -t 10.135650004 -s 4 -d 4 -p tcp -e 1060 -c 2 -a 0 -i 24 -k AGT
+ -t 10.135650004 -s 4 -d -1 -p ack -e 40 -c 2 -a 0 -i 35 -k AGT 
- -t 10.135650004 -s 4 -d -1 -p ack -e 40 -c 2 -a 0 -i 35 -k AGT
h -t 10.135650004 -s 4 -d -1 -p ack -e 40 -c 2 -a 0 -i 35 -k AGT
+ -t 10.135650004 -s 4 -d 0 -p ack -e 60 -c 2 -a 0 -i 35 -k RTR 
- -t 10.135650004 -s 4 -d 0 -p ack -e 60 -c 2 -a 0 -i 35 -k RTR
h -t 10.135650004 -s 4 -d 0 -p ack -e 60 -c 2 -a 0 -i 35 -k RTR
r -t 10.145636082 -s 4 -d 4 -p tcp -e 1060 -c 2 -a 0 -i 25 -k AGT
+ -t 10.145636082 -s 4 -d -1 -p ack -e 40 -c 2 -a 0 -i 36 -k AGT 
- -t 10.145636082 -s 4 -d -1 -p ack -e 40 -c 2 -a 0 -i 36 -k AGT
h -t 10.145636082 -s 4 -d -1 -p ack -e 40 -c 2 -a 0 -i 36 -k AGT
+ -t 10.145636082 -s 4 -d 0 -p ack -e 60 -c 2 -a 0 -i 36 -k RTR 
- -t 10.145636082 -s 4 -d 0 -p ack -e 60 -c 2 -a 0 -i 36 -k RTR
h -t 10.145636082 -s 4 -d 0 -p ack -e 60 -c 2 -a 0 -i 36 -k RTR
r -t 10.155842159 -s 4 -d 4 -p tcp -e 1060 -c 2 -a 0 -i 26 -k AGT
+ -t 10.155842159 -s 4 -d -1 -p ack -e 40 -c 2 -a 0 -i 37 -k AGT 
- -t 10.155842159 -s 4 -d -1 -p ack -e 40 -c 2 -a 0 -i 37 -k AGT
h -t 10.155842159 -s 4 -d -1 -p ack -e 40 -c 2 -a 0 -i 37 -k AGT
+ -t 10.155842159 -s 4 -d 0 -p ack -e 60 -c 2 -a 0 -i 37 -k RTR 
- -t 10.155842159 -s 4 -d 0 -p ack -e 60 -c 2 -a 0 -i 37 -k RTR
h -t 10.155842159 -s 4 -d 0 -p ack -e 60 -c 2 -a 0 -i 37 -k RTR
r -t 10.157847716 -s 0 -d 0 -p ack -e 60 -c 2 -a 0 -i 31 -k AGT
+ -t 10.157847716 -s 0 -d -1 -p tcp -e 1040 -c 2 -a 0 -i 38 -k AGT 
- -t 10.157847716 -s 0 -d -1 -p tcp -e 1040 -c 2 -a 0 -i 38 -k AGT
h -t 10.157847716 -s 0 -d -1 -p tcp -e 1040 -c 2 -a 0 -i 38 -k AGT
+ -t 10.157847716 -s 0 -d 4 -p tcp -e 1060 -c 2 -a 0 -i 38 -k RTR 
- -t 10.157847716 -s 0 -d 4 -p tcp -e 1060 -c 2 -a 0 -i 38 -k RTR
h -t 10.157847716 -s 0 -d 4 -p tcp -e 1060 -c 2 -a 0 -i 38 -k RTR
+ -t 10.157847716 -s 0 -d -1 -p tcp -e 1040 -c 2 -a 0 -i 39 -k AGT 
- -t 10.157847716 -s 0 -d -1 -p tcp -e 1040 -c 2 -a 0 -i 39 -k AGT
h -t 10.157847716 -s 0 -d -1 -p tcp -e 1040 -c 2 -a 0 -i 39 -k AGT
+ -t 10.157847716 -s 0 -d 4 -p tcp -e 1060 -c 2 -a 0 -i 39 -k RTR 
- -t 10.157847716 -s 0 -d 4 -p tcp -e 1060 -c 2 -a 0 -i 39 -k RTR
h -t 10.157847716 -s 0 -d 4 -p tcp -e 1060 -c 2 -a 0 -i 39 -k RTR
r -t 10.159993793 -s 0 -d 0 -p ack -e 60 -c 2 -a 0 -i 32 -k AGT
+ -t 10.159993793 -s 0 -d -1 -p tcp -e 1040 -c 2 -a 0 -i 40 -k AGT 
- -t 10.159993793 -s 0 -d -1 -p tcp -e 1040 -c 2 -a 0 -i 40 -k AGT
h -t 10.159993793 -s 0 -d -1 -p tcp -e 1040 -c 2 -a 0 -i 40 -k AGT
+ -t 10.159993793 -s 0 -d 4 -p tcp -e 1060 -c 2 -a 0 -i 40 -k RTR 
- -t 10.159993793 -s 0 -d 4 -p tcp -e 1060 -c 2 -a 0 -i 40 -k RTR
h -t 10.159993793 -s 0 -d 4 -p tcp -e 1060 -c 2 -a 0 -i 40 -k RTR
+ -t 10.159993793 -s 0 -d -1 -p tcp -e 1040 -c 2 -a 0 -i 41 -k AGT 
- -t 10.159993793 -s 0 -d -1 -p tcp -e 1040 -c 2 -a 0 -i 41 -k AGT
h -t 10.159993793 -s 0 -d -1 -p tcp -e 1040 -c 2 -a 0 -i 41 -k AGT
+ -t 10.159993793 -s 0 -d 4 -p tcp -e 1060 -c 2 -a 0 -i 41 -k RTR 
- -t 10.159993793 -s 0 -d 4 -p tcp -e 1060 -c 2 -a 0 -i 41 -k RTR
h -t 10.159993793 -s 0 -d 4 -p tcp -e 1060 -c 2 -a 0 -i 41 -k RTR
r -t 10.170139351 -s 4 -d 4 -p tcp -e 1060 -c 2 -a 0 -i 27 -k AGT
+ -t 10.170139351 -s 4 -d -1 -p ack -e 40 -c 2 -a 0 -i 42 -k AGT 
- -t 10.170139351 -s 4 -d -1 -p ack -e 40 -c 2 -a 0 -i 42 -k AGT
h -t 10.170139351 -s 4 -d -1 -p ack -e 40 -c 2 -a 0 -i 42 -k AGT
+ -t 10.170139351 -s 4 -d 0 -p ack -e 60 -c 2 -a 0 -i 42 -k RTR 
- -t 10.170139351 -s 4 -d 0 -p ack -e 60 -c 2 -a 0 -i 42 -k RTR
h -t 10.170139351 -s 4 -d 0 -p ack -e 60 -c 2 -a 0 -i 42 -k RTR
r -t 10.172204908 -s 0 -d 0 -p ack -e 60 -c 2 -a 0 -i 35 -k AGT
+ -t 10.172204908 -s 0 -d -1 -p tcp -e 1040 -c 2 -a 0 -i 43 -k AGT 
- -t 10.172204908 -s 0 -d -1 -p tcp -e 1040 -c 2 -a 0 -i 43 -k AGT
h -t 10.172204908 -s 0 -d -1 -p tcp -e 1040 -c 2 -a 0 -i 43 -k AGT
+ -t 10.172204908 -s 0 -d 4 -p tcp -e 1060 -c 2 -a 0 -i 43 -k RTR 
- -t 10.172204908 -s 0 -d 4 -p tcp -e 1060 -c 2 -a 0 -i 43 -k RTR
h -t 10.172204908 -s 0 -d 4 -p tcp -e 1060 -c 2 -a 0 -i 43 -k RTR
+ -t 10.172204908 -s 0 -d -1 -p tcp -e 1040 -c 2 -a 0 -i 44 -k AGT 
- -t 10.172204908 -s 0 -d -1 -p tcp -e 1040 -c 2 -a 0 -i 44 -k AGT
h -t 10.172204908 -s 0 -d -1 -p tcp -e 1040 -c 2 -a 0 -i 44 -k AGT
+ -t 10.172204908 -s 0 -d 4 -p tcp -e 1060 -c 2 -a 0 -i 44 -k RTR 
- -t 10.172204908 -s 0 -d 4 -p tcp -e 1060 -c 2 -a 0 -i 44 -k RTR
h -t 10.172204908 -s 0 -d 4 -p tcp -e 1060 -c 2 -a 0 -i 44 -k RTR
r -t 10.182210465 -s 4 -d 4 -p tcp -e 1060 -c 2 -a 0 -i 28 -k AGT
+ -t 10.182210465 -s 4 -d -1 -p ack -e 40 -c 2 -a 0 -i 45 -k AGT 
- -t 10.182210465 -s 4 -d -1 -p ack -e 40 -c 2 -a 0 -i 45 -k AGT
h -t 10.182210465 -s 4 -d -1 -p ack -e 40 -c 2 -a 0 -i 45 -k AGT
+ -t 10.182210465 -s 4 -d 0 -p ack -e 60 -c 2 -a 0 -i 45 -k RTR 
- -t 10.182210465 -s 4 -d 0 -p ack -e 60 -c 2 -a 0 -i 45 -k RTR
h -t 10.182210465 -s 4 -d 0 -p ack -e 60 -c 2 -a 0 -i 45 -k RTR
r -t 10.192196541 -s 4 -d 4 -p tcp -e 1060 -c 2 -a 0 -i 29 -k AGT
+ -t 10.192196541 -s 4 -d -1 -p ack -e 40 -c 2 -a 0 -i 46 -k AGT 
- -t 10.192196541 -s 4 -d -1 -p ack -e 40 -c 2 -a 0 -i 46 -k AGT
h -t 10.192196541 -s 4 -d -1 -p ack -e 40 -c 2 -a 0 -i 46 -k AGT
+ -t 10.192196541 -s 4 -d 0 -p ack -e 60 -c 2 -a 0 -i 46 -k RTR 
- -t 10.192196541 -s 4 -d 0 -p ack -e 60 -c 2 -a 0 -i 46 -k RTR
h -t 10.192196541 -s 4 -d 0 -p ack -e 60 -c 2 -a 0 -i 46 -k RTR
r -t 10.202422616 -s 4 -d 4 -p tcp -e 1060 -c 2 -a 0 -i 33 -k AGT
+ -t 10.202422616 -s 4 -d -1 -p ack -e 40 -c 2 -a 0 -i 47 -k AGT 
- -t 10.202422616 -s 4 -d -1 -p ack -e 40 -c 2 -a 0 -i 47 -k AGT
h -t 10.202422616 -s 4 -d -1 -p ack -e 40 -c 2 -a 0 -i 47 -k AGT
+ -t 10.202422616 -s 4 -d 0 -p ack -e 60 -c 2 -a 0 -i 47 -k RTR 
- -t 10.202422616 -s 4 -d 0 -p ack -e 60 -c 2 -a 0 -i 47 -k RTR
h -t 10.202422616 -s 4 -d 0 -p ack -e 60 -c 2 -a 0 -i 47 -k RTR
r -t 10.204468173 -s 0 -d 0 -p ack -e 60 -c 2 -a 0 -i 36 -k AGT
+ -t 10.204468173 -s 0 -d -1 -p tcp -e 1040 -c 2 -a 0 -i 48 -k AGT 
- -t 10.204468173 -s 0 -d -1 -p tcp -e 1040 -c 2 -a 0 -i 48 -k AGT
h -t 10.204468173 -s 0 -d -1 -p tcp -e 1040 -c 2 -a 0 -i 48 -k AGT
+ -t 10.204468173 -s 0 -d 4 -p tcp -e 1060 -c 2 -a 0 -i 48 -k RTR 
- -t 10.204468173 -s 0 -d 4 -p tcp -e 1060 -c 2 -a 0 -i 48 -k RTR
h -t 10.204468173 -s 0 -d 4 -p tcp -e 1060 -c 2 -a 0 -i 48 -k RTR
+ -t 10.204468173 -s 0 -d -1 -p tcp -e 1040 -c 2 -a 0 -i 49 -k AGT 
- -t 10.204468173 -s 0 -d -1 -p tcp -e 1040 -c 2 -a 0 -i 49 -k AGT
h -t 10.204468173 -s 0 -d -1 -p tcp -e 1040 -c 2 -a 0 -i 49 -k AGT
+ -t 10.204468173 -s 0 -d 4 -p tcp -e 1060 -c 2 -a 0 -i 49 -k RTR 
- -t 10.204468173 -s 0 -d 4 -p tcp -e 1060 -c 2 -a 0 -i 49 -k RTR
h -t 10.204468173 -s 0 -d 4 -p tcp -e 1060 -c 2 -a 0 -i 49 -k RTR
r -t 10.214713729 -s 4 -d 4 -p tcp -e 1060 -c 2 -a 0 -i 34 -k AGT
+ -t 10.214713729 -s 4 -d -1 -p ack -e 40 -c 2 -a 0 -i 50 -k AGT 
- -t 10.214713729 -s 4 -d -1 -p ack -e 40 -c 2 -a 0 -i 50 -k AGT
h -t 10.214713729 -s 4 -d -1 -p ack -e 40 -c 2 -a 0 -i 50 -k AGT
+ -t 10.214713729 -s 4 -d 0 -p ack -e 60 -c 2 -a 0 -i 50 -k RTR 
- -t 10.214713729 -s 4 -d 0 -p ack -e 60 -c 2 -a 0 -i 50 -k RTR
h -t 10.214713729 -s 4 -d 0 -p ack -e 60 -c 2 -a 0 -i 50 -k RTR
r -t 10.224719804 -s 4 -d 4 -p tcp -e 1060 -c 2 -a 0 -i 38 -k AGT
+ -t 10.224719804 -s 4 -d -1 -p ack -e 40 -c 2 -a 0 -i 51 -k AGT 
- -t 10.224719804 -s 4 -d -1 -p ack -e 40 -c 2 -a 0 -i 51 -k AGT
h -t 10.224719804 -s 4 -d -1 -p ack -e 40 -c 2 -a 0 -i 51 -k AGT
+ -t 10.224719804 -s 4 -d 0 -p ack -e 60 -c 2 -a 0 -i 51 -k RTR 
- -t 10.224719804 -s 4 -d 0 -p ack -e 60 -c 2 -a 0 -i 51 -k RTR
h -t 10.224719804 -s 4 -d 0 -p ack -e 60 -c 2 -a 0 -i 51 -k RTR
r -t 10.226725359 -s 0 -d 0 -p ack -e 60 -c 2 -a 0 -i 37 -k AGT
+ -t 10.226725359 -s 0 -d -1 -p tcp -e 1040 -c 2 -a 0 -i 52 -k AGT 
- -t 10.226725359 -s 0 -d -1 -p tcp -e 1040 -c 2 -a 0 -i 52 -k AGT
h -t 10.226725359 -s 0 -d -1 -p tcp -e 1040 -c 2 -a 0 -i 52 -k AGT
+ -t 10.226725359 -s 0 -d 4 -p tcp -e 1060 -c 2 -a 0 -i 52 -k RTR 
- -t 10.226725359 -s 0 -d 4 -p tcp -e 1060 -c 2 -a 0 -i 52 -k RTR
h -t 10.226725359 -s 0 -d 4 -p tcp -e 1060 -c 2 -a 0 -i 52 -k RTR
+ -t 10.226725359 -s 0 -d -1 -p tcp -e 1040 -c 2 -a 0 -i 53 -k AGT 
- -t 10.226725359 -s 0 -d -1 -p tcp -e 1040 -c 2 -a 0 -i 53 -k AGT
h -t 10.226725359 -s 0 -d -1 -p tcp -e 1040 -c 2 -a 0 -i 53 -k AGT
+ -t 10.226725359 -s 0 -d 4 -p tcp -e 1060 -c 2 -a 0 -i 53 -k RTR 
- -t 10.226725359 -s 0 -d 4 -p tcp -e 1060 -c 2 -a 0 -i 53 -k RTR
h -t 10.226725359 -s 0 -d 4 -p tcp -e 1060 -c 2 -a 0 -i 53 -k RTR
r -t 10.228951434 -s 0 -d 0 -p ack -e 60 -c 2 -a 0 -i 42 -k AGT
+ -t 10.228951434 -s 0 -d -1 -p tcp -e 1040 -c 2 -a 0 -i 54 -k AGT 
- -t 10.228951434 -s 0 -d -1 -p tcp -e 1040 -c 2 -a 0 -i 54 -k AGT
h -t 10.228951434 -s 0 -d -1 -p tcp -e 1040 -c 2 -a 0 -i 54 -k AGT
+ -t 10.228951434 -s 0 -d 4 -p tcp -e 1060 -c 2 -a 0 -i 54 -k RTR 
- -t 10.228951434 -s 0 -d 4 -p tcp -e 1060 -c 2 -a 0 -i 54 -k RTR
h -t 10.228951434 -s 0 -d 4 -p tcp -e 1060 -c 2 -a 0 -i 54 -k RTR
+ -t 10.228951434 -s 0 -d -1 -p tcp -e 1040 -c 2 -a 0 -i 55 -k AGT 
- -t 10.228951434 -s 0 -d -1 -p tcp -e 1040 -c 2 -a 0 -i 55 -k AGT
h -t 10.228951434 -s 0 -d -1 -p tcp -e 1040 -c 2 -a 0 -i 55 -k AGT
+ -t 10.228951434 -s 0 -d 4 -p tcp -e 1060 -c 2 -a 0 -i 55 -k RTR 
- -t 10.228951434 -s 0 -d 4 -p tcp -e 1060 -c 2 -a 0 -i 55 -k RTR
h -t 10.228951434 -s 0 -d 4 -p tcp -e 1060 -c 2 -a 0 -i 55 -k RTR
r -t 10.231057508 -s 0 -d 0 -p ack -e 60 -c 2 -a 0 -i 45 -k AGT
+ -t 10.231057508 -s 0 -d -1 -p tcp -e 1040 -c 2 -a 0 -i 56 -k AGT 
- -t 10.231057508 -s 0 -d -1 -p tcp -e 1040 -c 2 -a 0 -i 56 -k AGT
h -t 10.231057508 -s 0 -d -1 -p tcp -e 1040 -c 2 -a 0 -i 56 -k AGT
+ -t 10.231057508 -s 0 -d 4 -p tcp -e 1060 -c 2 -a 0 -i 56 -k RTR 
- -t 10.231057508 -s 0 -d 4 -p tcp -e 1060 -c 2 -a 0 -i 56 -k RTR
h -t 10.231057508 -s 0 -d 4 -p tcp -e 1060 -c 2 -a 0 -i 56 -k RTR
+ -t 10.231057508 -s 0 -d -1 -p tcp -e 1040 -c 2 -a 0 -i 57 -k AGT 
- -t 10.231057508 -s 0 -d -1 -p tcp -e 1040 -c 2 -a 0 -i 57 -k AGT
h -t 10.231057508 -s 0 -d -1 -p tcp -e 1040 -c 2 -a 0 -i 57 -k AGT
+ -t 10.231057508 -s 0 -d 4 -p tcp -e 1060 -c 2 -a 0 -i 57 -k RTR 
- -t 10.231057508 -s 0 -d 4 -p tcp -e 1060 -c 2 -a 0 -i 57 -k RTR
h -t 10.231057508 -s 0 -d 4 -p tcp -e 1060 -c 2 -a 0 -i 57 -k RTR
r -t 10.241163063 -s 4 -d 4 -p tcp -e 1060 -c 2 -a 0 -i 39 -k AGT
+ -t 10.241163063 -s 4 -d -1 -p ack -e 40 -c 2 -a 0 -i 58 -k AGT 
- -t 10.241163063 -s 4 -d -1 -p ack -e 40 -c 2 -a 0 -i 58 -k AGT
h -t 10.241163063 -s 4 -d -1 -p ack -e 40 -c 2 -a 0 -i 58 -k AGT
+ -t 10.241163063 -s 4 -d 0 -p ack -e 60 -c 2 -a 0 -i 58 -k RTR 
- -t 10.241163063 -s 4 -d 0 -p ack -e 60 -c 2 -a 0 -i 58 -k RTR
h -t 10.241163063 -s 4 -d 0 -p ack -e 60 -c 2 -a 0 -i 58 -k RTR
r -t 10.251189137 -s 4 -d 4 -p tcp -e 1060 -c 2 -a 0 -i 40 -k AGT
+ -t 10.251189137 -s 4 -d -1 -p ack -e 40 -c 2 -a 0 -i 59 -k AGT 
- -t 10.251189137 -s 4 -d -1 -p ack -e 40 -c 2 -a 0 -i 59 -k AGT
h -t 10.251189137 -s 4 -d -1 -p ack -e 40 -c 2 -a 0 -i 59 -k AGT
+ -t 10.251189137 -s 4 -d 0 -p ack -e 60 -c 2 -a 0 -i 59 -k RTR 
- -t 10.251189137 -s 4 -d 0 -p ack -e 60 -c 2 -a 0 -i 59 -k RTR
h -t 10.251189137 -s 4 -d 0 -p ack -e 60 -c 2 -a 0 -i 59 -k RTR
r -t 10.253334692 -s 0 -d 0 -p ack -e 60 -c 2 -a 0 -i 46 -k AGT
+ -t 10.253334692 -s 0 -d -1 -p tcp -e 1040 -c 2 -a 0 -i 60 -k AGT 
- -t 10.253334692 -s 0 -d -1 -p tcp -e 1040 -c 2 -a 0 -i 60 -k AGT
h -t 10.253334692 -s 0 -d -1 -p tcp -e 1040 -c 2 -a 0 -i 60 -k AGT
+ -t 10.253334692 -s 0 -d 4 -p tcp -e 1060 -c 2 -a 0 -i 60 -k RTR 
- -t 10.253334692 -s 0 -d 4 -p tcp -e 1060 -c 2 -a 0 -i 60 -k RTR
h -t 10.253334692 -s 0 -d 4 -p tcp -e 1060 -c 2 -a 0 -i 60 -k RTR
+ -t 10.253334692 -s 0 -d -1 -p tcp -e 1040 -c 2 -a 0 -i 61 -k AGT 
- -t 10.253334692 -s 0 -d -1 -p tcp -e 1040 -c 2 -a 0 -i 61 -k AGT
h -t 10.253334692 -s 0 -d -1 -p tcp -e 1040 -c 2 -a 0 -i 61 -k AGT
+ -t 10.253334692 -s 0 -d 4 -p tcp -e 1060 -c 2 -a 0 -i 61 -k RTR 
- -t 10.253334692 -s 0 -d 4 -p tcp -e 1060 -c 2 -a 0 -i 61 -k RTR
h -t 10.253334692 -s 0 -d 4 -p tcp -e 1060 -c 2 -a 0 -i 61 -k RTR
r -t 10.255440766 -s 0 -d 0 -p ack -e 60 -c 2 -a 0 -i 47 -k AGT
+ -t 10.255440766 -s 0 -d -1 -p tcp -e 1040 -c 2 -a 0 -i 62 -k AGT 
- -t 10.255440766 -s 0 -d -1 -p tcp -e 1040 -c 2 -a 0 -i 62 -k AGT
h -t 10.255440766 -s 0 -d -1 -p tcp -e 1040 -c 2 -a 0 -i 62 -k AGT
+ -t 10.255440766 -s 0 -d 4 -p tcp -e 1060 -c 2 -a 0 -i 62 -k RTR 
- -t 10.255440766 -s 0 -d 4 -p tcp -e 1060 -c 2 -a 0 -i 62 -k RTR
h -t 10.255440766 -s 0 -d 4 -p tcp -e 1060 -c 2 -a 0 -i 62 -k RTR
+ -t 10.255440766 -s 0 -d -1 -p tcp -e 1040 -c 2 -a 0 -i 63 -k AGT 
- -t 10.255440766 -s 0 -d -1 -p tcp -e 1040 -c 2 -a 0 -i 63 -k AGT
h -t 10.255440766 -s 0 -d -1 -p tcp -e 1040 -c 2 -a 0 -i 63 -k AGT
+ -t 10.255440766 -s 0 -d 4 -p tcp -e 1060 -c 2 -a 0 -i 63 -k RTR 
- -t 10.255440766 -s 0 -d 4 -p tcp -e 1060 -c 2 -a 0 -i 63 -k RTR
h -t 10.255440766 -s 0 -d 4 -p tcp -e 1060 -c 2 -a 0 -i 63 -k RTR
r -t 10.265626320 -s 4 -d 4 -p tcp -e 1060 -c 2 -a 0 -i 41 -k AGT
+ -t 10.265626320 -s 4 -d -1 -p ack -e 40 -c 2 -a 0 -i 64 -k AGT 
- -t 10.265626320 -s 4 -d -1 -p ack -e 40 -c 2 -a 0 -i 64 -k AGT
h -t 10.265626320 -s 4 -d -1 -p ack -e 40 -c 2 -a 0 -i 64 -k AGT
+ -t 10.265626320 -s 4 -d 0 -p ack -e 60 -c 2 -a 0 -i 64 -k RTR 
- -t 10.265626320 -s 4 -d 0 -p ack -e 60 -c 2 -a 0 -i 64 -k RTR
h -t 10.265626320 -s 4 -d 0 -p ack -e 60 -c 2 -a 0 -i 64 -k RTR
r -t 10.267631875 -s 0 -d 0 -p ack -e 60 -c 2 -a 0 -i 50 -k AGT
+ -t 10.267631875 -s 0 -d -1 -p tcp -e 1040 -c 2 -a 0 -i 65 -k AGT 
- -t 10.267631875 -s 0 -d -1 -p tcp -e 1040 -c 2 -a 0 -i 65 -k AGT
h -t 10.267631875 -s 0 -d -1 -p tcp -e 1040 -c 2 -a 0 -i 65 -k AGT
+ -t 10.267631875 -s 0 -d 4 -p tcp -e 1060 -c 2 -a 0 -i 65 -k RTR 
- -t 10.267631875 -s 0 -d 4 -p tcp -e 1060 -c 2 -a 0 -i 65 -k RTR
h -t 10.267631875 -s 0 -d 4 -p tcp -e 1060 -c 2 -a 0 -i 65 -k RTR
+ -t 10.267631875 -s 0 -d -1 -p tcp -e 1040 -c 2 -a 0 -i 66 -k AGT 
- -t 10.267631875 -s 0 -d -1 -p tcp -e 1040 -c 2 -a 0 -i 66 -k AGT
h -t 10.267631875 -s 0 -d -1 -p tcp -e 1040 -c 2 -a 0 -i 66 -k AGT
+ -t 10.267631875 -s 0 -d 4 -p tcp -e 1060 -c 2 -a 0 -i 66 -k RTR 
- -t 10.267631875 -s 0 -d 4 -p tcp -e 1060 -c 2 -a 0 -i 66 -k RTR
h -t 10.267631875 -s 0 -d 4 -p tcp -e 1060 -c 2 -a 0 -i 66 -k RTR
r -t 10.269697948 -s 0 -d 0 -p ack -e 60 -c 2 -a 0 -i 51 -k AGT