s -t 0.031538939 -Hs 1 -Hd -1 -Ni 1 -Nx 242.00 -Ny 232.00 -Nz 0.00 -Ne -1.000000 -Nl RTR -Nw --- -Ma 0 -Md 0 -Ms 0 -Mt 0 -Is 1.255 -Id -1.255 -It message -Il 32 -If 0 -Ii 0 -Iv 32 
r -t 0.032599297 -Hs 3 -Hd -1 -Ni 3 -Nx 135.00 -Ny 224.00 -Nz 0.00 -Ne -1.000000 -Nl RTR -Nw --- -Ma 0 -Md ffffffff -Ms 1 -Mt 800 -Is 1.255 -Id -1.255 -It message -Il 32 -If 0 -Ii 0 -Iv 32 
r -t 0.032599505 -Hs 2 -Hd -1 -Ni 2 -Nx 87.00 -Ny 163.00 -Nz 0.00 -Ne -1.000000 -Nl RTR -Nw --- -Ma 0 -Md ffffffff -Ms 1 -Mt 800 -Is 1.255 -Id -1.255 -It message -Il 32 -If 0 -Ii 0 -Iv 32 
r -t 0.032599634 -Hs 4 -Hd -1 -Ni 4 -Nx 93.00 -Ny 86.00 -Nz 0.00 -Ne -1.000000 -Nl RTR -Nw --- -Ma 0 -Md ffffffff -Ms 1 -Mt 800 -Is 1.255 -Id -1.255 -It message -Il 32 -If 0 -Ii 0 -Iv 32 
r -t 0.032599709 -Hs 0 -Hd -1 -Ni 0 -Nx 240.00 -Ny 1.00 -Nz 0.00 -Ne -1.000000 -Nl RTR -Nw --- -Ma 0 -Md ffffffff -Ms 1 -Mt 800 -Is 1.255 -Id -1.255 -It message -Il 32 -If 0 -Ii 0 -Iv 32 
s -t 0.179336133 -Hs 2 -Hd -1 -Ni 2 -Nx 87.00 -Ny 163.00 -Nz 0.00 -Ne -1.000000 -Nl RTR -Nw --- -Ma 0 -Md 0 -Ms 0 -Mt 0 -Is 2.255 -Id -1.255 -It message -Il 32 -If 0 -Ii 1 -Iv 32 
r -t 0.180196391 -Hs 4 -Hd -1 -Ni 4 -Nx 93.00 -Ny 86.00 -Nz 0.00 -Ne -1.000000 -Nl RTR -Nw --- -Ma 0 -Md ffffffff -Ms 2 -Mt 800 -Is 2.255 -Id -1.255 -It message -Il 32 -If 0 -Ii 1 -Iv 32 
r -t 0.180196392 -Hs 3 -Hd -1 -Ni 3 -Nx 135.00 -Ny 224.00 -Nz 0.00 -Ne -1.000000 -Nl RTR -Nw --- -Ma 0 -Md ffffffff -Ms 2 -Mt 800 -Is 2.255 -Id -1.255 -It message -Il 32 -If 0 -Ii 1 -Iv 32 
r -t 0.180196699 -Hs 1 -Hd -1 -Ni 1 -Nx 242.00 -Ny 232.00 -Nz 0.00 -Ne -1.000000 -Nl RTR -Nw --- -Ma 0 -Md ffffffff -Ms 2 -Mt 800 -Is 2.255 -Id -1.255 -It message -Il 32 -If 0 -Ii 1 -Iv 32 
r -t 0.180196876 -Hs 0 -Hd -1 -Ni 0 -Nx 240.00 -Ny 1.00 -Nz 0.00 -Ne -1.000000 -Nl RTR -Nw --- -Ma 0 -Md ffffffff -Ms 2 -Mt 800 -Is 2.255 -Id -1.255 -It message -Il 32 -If 0 -Ii 1 -Iv 32 
s -t 0.888747441 -Hs 3 -Hd -1 -Ni 3 -Nx 135.00 -Ny 224.00 -Nz 0.00 -Ne -1.000000 -Nl RTR -Nw --- -Ma 0 -Md 0 -Ms 0 -Mt 0 -Is 3.255 -Id -1.255 -It message -Il 32 -If 0 -Ii 2 -Iv 32 
r -t 0.889807699 -Hs 2 -Hd -1 -Ni 2 -Nx 87.00 -Ny 163.00 -Nz 0.00 -Ne -1.000000 -Nl RTR -Nw --- -Ma 0 -Md ffffffff -Ms 3 -Mt 800 -Is 3.255 -Id -1.255 -It message -Il 32 -If 0 -Ii 2 -Iv 32 
r -t 0.889807798 -Hs 1 -Hd -1 -Ni 1 -Nx 242.00 -Ny 232.00 -Nz 0.00 -Ne -1.000000 -Nl RTR -Nw --- -Ma 0 -Md ffffffff -Ms 3 -Mt 800 -Is 3.255 -Id -1.255 -It message -Il 32 -If 0 -Ii 2 -Iv 32 
r -t 0.889807922 -Hs 4 -Hd -1 -Ni 4 -Nx 93.00 -Ny 86.00 -Nz 0.00 -Ne -1.000000 -Nl RTR -Nw --- -Ma 0 -Md ffffffff -Ms 3 -Mt 800 -Is 3.255 -Id -1.255 -It message -Il 32 -If 0 -Ii 2 -Iv 32 
r -t 0.889808262 -Hs 0 -Hd -1 -Ni 0 -Nx 240.00 -Ny 1.00 -Nz 0.00 -Ne -1.000000 -Nl RTR -Nw --- -Ma 0 -Md ffffffff -Ms 3 -Mt 800 -Is 3.255 -Id -1.255 -It message -Il 32 -If 0 -Ii 2 -Iv 32 
s -t 1.113509485 -Hs 0 -Hd -1 -Ni 0 -Nx 240.00 -Ny 1.00 -Nz 0.00 -Ne -1.000000 -Nl RTR -Nw --- -Ma 0 -Md 0 -Ms 0 -Mt 0 -Is 0.255 -Id -1.255 -It message -Il 32 -If 0 -Ii 3 -Iv 32 
r -t 1.114650051 -Hs 4 -Hd -1 -Ni 4 -Nx 93.00 -Ny 86.00 -Nz 0.00 -Ne -1.000000 -Nl RTR -Nw --- -Ma 0 -Md ffffffff -Ms 0 -Mt 800 -Is 0.255 -Id -1.255 -It message -Il 32 -If 0 -Ii 3 -Iv 32 
r -t 1.114650227 -Hs 2 -Hd -1 -Ni 2 -Nx 87.00 -Ny 163.00 -Nz 0.00 -Ne -1.000000 -Nl RTR -Nw --- -Ma 0 -Md ffffffff -Ms 0 -Mt 800 -Is 0.255 -Id -1.255 -It message -Il 32 -If 0 -Ii 3 -Iv 32 
r -t 1.114650255 -Hs 1 -Hd -1 -Ni 1 -Nx 242.00 -Ny 232.00 -Nz 0.00 -Ne -1.000000 -Nl RTR -Nw --- -Ma 0 -Md ffffffff -Ms 0 -Mt 800 -Is 0.255 -Id -1.255 -It message -Il 32 -If 0 -Ii 3 -Iv 32 
r -t 1.114650306 -Hs 3 -Hd -1 -Ni 3 -Nx 135.00 -Ny 224.00 -Nz 0.00 -Ne -1.000000 -Nl RTR -Nw --- -Ma 0 -Md ffffffff -Ms 0 -Mt 800 -Is 0.255 -Id -1.255 -It message -Il 32 -If 0 -Ii 3 -Iv 32 
s -t 1.600891786 -Hs 4 -Hd -1 -Ni 4 -Nx 93.00 -Ny 86.00 -Nz 0.00 -Ne -1.000000 -Nl RTR -Nw --- -Ma 0 -Md 0 -Ms 0 -Mt 0 -Is 4.255 -Id -1.255 -It message -Il 32 -If 0 -Ii 4 -Iv 32 
r -t 1.601952044 -Hs 2 -Hd -1 -Ni 2 -Nx 87.00 -Ny 163.00 -Nz 0.00 -Ne -1.000000 -Nl RTR -Nw --- -Ma 0 -Md ffffffff -Ms 4 -Mt 800 -Is 4.255 -Id -1.255 -It message -Il 32 -If 0 -Ii 4 -Iv 32 
r -t 1.601952267 -Hs 3 -Hd -1 -Ni 3 -Nx 135.00 -Ny 224.00 -Nz 0.00 -Ne -1.000000 -Nl RTR -Nw --- -Ma 0 -Md ffffffff -Ms 4 -Mt 800 -Is 4.255 -Id -1.255 -It message -Il 32 -If 0 -Ii 4 -Iv 32 
r -t 1.601952353 -Hs 0 -Hd -1 -Ni 0 -Nx 240.00 -Ny 1.00 -Nz 0.00 -Ne -1.000000 -Nl RTR -Nw --- -Ma 0 -Md ffffffff -Ms 4 -Mt 800 -Is 4.255 -Id -1.255 -It message -Il 32 -If 0 -Ii 4 -Iv 32 
r -t 1.601952482 -Hs 1 -Hd -1 -Ni 1 -Nx 242.00 -Ny 232.00 -Nz 0.00 -Ne -1.000000 -Nl RTR -Nw --- -Ma 0 -Md ffffffff -Ms 4 -Mt 800 -Is 4.255 -Id -1.255 -It message -Il 32 -If 0 -Ii 4 -Iv 32 
M 5.00000 0 (240.00, 1.00, 0.00), (157.00, 114.00), 3.00
M 10.00000 1 (242.00, 232.00, 0.00), (11.00, 270.00), 8.00
s -t 10.000000000 -Hs 0 -Hd -2 -Ni 0 -Nx 231.12 -Ny 13.09 -Nz 0.00 -Ne -1.000000 -Nl AGT -Nw --- -Ma 0 -Md 0 -Ms 0 -Mt 0 -Is 0.0 -Id 4.0 -It tcp -Il 40 -If 2 -Ii 5 -Iv 32 -Pn tcp -Ps 0 -Pa 0 -Pf 0 -Po 0 
r -t 10.000000000 -Hs 0 -Hd -2 -Ni 0 -Nx 231.12 -Ny 13.09 -Nz 0.00 -Ne -1.000000 -Nl RTR -Nw --- -Ma 0 -Md 0 -Ms 0 -Mt 0 -Is 0.0 -Id 4.0 -It tcp -Il 40 -If 2 -Ii 5 -Iv 32 -Pn tcp -Ps 0 -Pa 0 -Pf 0 -Po 0 
s -t 10.000000000 -Hs 0 -Hd 4 -Ni 0 -Nx 231.12 -Ny 13.09 -Nz 0.00 -Ne -1.000000 -Nl RTR -Nw --- -Ma 0 -Md 0 -Ms 0 -Mt 0 -Is 0.0 -Id 4.0 -It tcp -Il 60 -If 2 -Ii 5 -Iv 32 -Pn tcp -Ps 0 -Pa 0 -Pf 0 -Po 0 
r -t 10.004934644 -Hs 4 -Hd 4 -Ni 4 -Nx 93.00 -Ny 86.00 -Nz 0.00 -Ne -1.000000 -Nl AGT -Nw --- -Ma 13a -Md 4 -Ms 0 -Mt 800 -Is 0.0 -Id 4.0 -It tcp -Il 60 -If 2 -Ii 5 -Iv 32 -Pn tcp -Ps 0 -Pa 0 -Pf 1 -Po 0 
s -t 10.004934644 -Hs 4 -Hd -2 -Ni 4 -Nx 93.00 -Ny 86.00 -Nz 0.00 -Ne -1.000000 -Nl AGT -Nw --- -Ma 0 -Md 0 -Ms 0 -Mt 0 -Is 4.0 -Id 0.0 -It ack -Il 40 -If 2 -Ii 6 -Iv 32 -Pn tcp -Ps 0 -Pa 0 -Pf 0 -Po 0 
r -t 10.004934644 -Hs 4 -Hd -2 -Ni 4 -Nx 93.00 -Ny 86.00 -Nz 0.00 -Ne -1.000000 -Nl RTR -Nw --- -Ma 0 -Md 0 -Ms 0 -Mt 0 -Is 4.0 -Id 0.0 -It ack -Il 40 -If 2 -Ii 6 -Iv 32 -Pn tcp -Ps 0 -Pa 0 -Pf 0 -Po 0 
s -t 10.004934644 -Hs 4 -Hd 0 -Ni 4 -Nx 93.00 -Ny 86.00 -Nz 0.00 -Ne -1.000000 -Nl RTR -Nw --- -Ma 0 -Md 0 -Ms 0 -Mt 0 -Is 4.0 -Id 0.0 -It ack -Il 60 -If 2 -Ii 6 -Iv 32 -Pn tcp -Ps 0 -Pa 0 -Pf 0 -Po 0 
r -t 10.007300206 -Hs 0 -Hd 0 -Ni 0 -Nx 231.11 -Ny 13.11 -Nz 0.00 -Ne -1.000000 -Nl AGT -Nw --- -Ma 13a -Md 0 -Ms 4 -Mt 800 -Is 4.0 -Id 0.0 -It ack -Il 60 -If 2 -Ii 6 -Iv 32 -Pn tcp -Ps 0 -Pa 0 -Pf 1 -Po 0 
s -t 10.007300206 -Hs 0 -Hd -2 -Ni 0 -Nx 231.11 -Ny 13.11 -Nz 0.00 -Ne -1.000000 -Nl AGT -Nw --- -Ma 0 -Md 0 -Ms 0 -Mt 0 -Is 0.0 -Id 4.0 -It tcp -Il 1040 -If 2 -Ii 7 -Iv 32 -Pn tcp -Ps 1 -Pa 0 -Pf 0 -Po 0 
r -t 10.007300206 -Hs 0 -Hd -2 -Ni 0 -Nx 231.11 -Ny 13.11 -Nz 0.00 -Ne -1.000000 -Nl RTR -Nw --- -Ma 0 -Md 0 -Ms 0 -Mt 0 -Is 0.0 -Id 4.0 -It tcp -Il 1040 -If 2 -Ii 7 -Iv 32 -Pn tcp -Ps 1 -Pa 0 -Pf 0 -Po 0 
s -t 10.007300206 -Hs 0 -Hd 4 -Ni 0 -Nx 231.11 -Ny 13.11 -Nz 0.00 -Ne -1.000000 -Nl RTR -Nw --- -Ma 0 -Md 0 -Ms 0 -Mt 0 -Is 0.0 -Id 4.0 -It tcp -Il 1060 -If 2 -Ii 7 -Iv 32 -Pn tcp -Ps 1 -Pa 0 -Pf 0 -Po 0 
s -t 10.007300206 -Hs 0 -Hd -2 -Ni 0 -Nx 231.11 -Ny 13.11 -Nz 0.00 -Ne -1.000000 -Nl AGT -Nw --- -Ma 0 -Md 0 -Ms 0 -Mt 0 -Is 0.0 -Id 4.0 -It tcp -Il 1040 -If 2 -Ii 8 -Iv 32 -Pn tcp -Ps 2 -Pa 0 -Pf 0 -Po 0 
r -t 10.007300206 -Hs 0 -Hd -2 -Ni 0 -Nx 231.11 -Ny 13.11 -Nz 0.00 -Ne -1.000000 -Nl RTR -Nw --- -Ma 0 -Md 0 -Ms 0 -Mt 0 -Is 0.0 -Id 4.0 -It tcp -Il 1040 -If 2 -Ii 8 -Iv 32 -Pn tcp -Ps 2 -Pa 0 -Pf 0 -Po 0 
s -t 10.007300206 -Hs 0 -Hd 4 -Ni 0 -Nx 231.11 -Ny 13.11 -Nz 0.00 -Ne -1.000000 -Nl RTR -Nw --- -Ma 0 -Md 0 -Ms 0 -Mt 0 -Is 0.0 -Id 4.0 -It tcp -Il 1060 -If 2 -Ii 8 -Iv 32 -Pn tcp -Ps 2 -Pa 0 -Pf 0 -Po 0 
r -t 10.017325767 -Hs 4 -Hd 4 -Ni 4 -Nx 93.00 -Ny 86.00 -Nz 0.00 -Ne -1.000000 -Nl AGT -Nw --- -Ma 13a -Md 4 -Ms 0 -Mt 800 -Is 0.0 -Id 4.0 -It tcp -Il 1060 -If 2 -Ii 7 -Iv 32 -Pn tcp -Ps 1 -Pa 0 -Pf 1 -Po 0 
s -t 10.017325767 -Hs 4 -Hd -2 -Ni 4 -Nx 93.00 -Ny 86.00 -Nz 0.00 -Ne -1.000000 -Nl AGT -Nw --- -Ma 0 -Md 0 -Ms 0 -Mt 0 -Is 4.0 -Id 0.0 -It ack -Il 40 -If 2 -Ii 9 -Iv 32 -Pn tcp -Ps 1 -Pa 0 -Pf 0 -Po 0 
r -t 10.017325767 -Hs 4 -Hd -2 -Ni 4 -Nx 93.00 -Ny 86.00 -Nz 0.00 -Ne -1.000000 -Nl RTR -Nw --- -Ma 0 -Md 0 -Ms 0 -Mt 0 -Is 4.0 -Id 0.0 -It ack -Il 40 -If 2 -Ii 9 -Iv 32 -Pn tcp -Ps 1 -Pa 0 -Pf 0 -Po 0 
s -t 10.017325767 -Hs 4 -Hd 0 -Ni 4 -Nx 93.00 -Ny 86.00 -Nz 0.00 -Ne -1.000000 -Nl RTR -Nw --- -Ma 0 -Md 0 -Ms 0 -Mt 0 -Is 4.0 -Id 0.0 -It ack -Il 60 -If 2 -Ii 9 -Iv 32 -Pn tcp -Ps 1 -Pa 0 -Pf 0 -Po 0 
r -t 10.019591329 -Hs 0 -Hd 0 -Ni 0 -Nx 231.09 -Ny 13.14 -Nz 0.00 -Ne -1.000000 -Nl AGT -Nw --- -Ma 13a -Md 0 -Ms 4 -Mt 800 -Is 4.0 -Id 0.0 -It ack -Il 60 -If 2 -Ii 9 -Iv 32 -Pn tcp -Ps 1 -Pa 0 -Pf 1 -Po 0 
s -t 10.019591329 -Hs 0 -Hd -2 -Ni 0 -Nx 231.09 -Ny 13.14 -Nz 0.00 -Ne -1.000000 -Nl AGT -Nw --- -Ma 0 -Md 0 -Ms 0 -Mt 0 -Is 0.0 -Id 4.0 -It tcp -Il 1040 -If 2 -Ii 10 -Iv 32 -Pn tcp -Ps 3 -Pa 0 -Pf 0 -Po 0 
r -t 10.019591329 -Hs 0 -Hd -2 -Ni 0 -Nx 231.09 -Ny 13.14 -Nz 0.00 -Ne -1.000000 -Nl RTR -Nw --- -Ma 0 -Md 0 -Ms 0 -Mt 0 -Is 0.0 -Id 4.0 -It tcp -Il 1040 -If 2 -Ii 10 -Iv 32 -Pn tcp -Ps 3 -Pa 0 -Pf 0 -Po 0 
s -t 10.019591329 -Hs 0 -Hd 4 -Ni 0 -Nx 231.09 -Ny 13.14 -Nz 0.00 -Ne -1.000000 -Nl RTR -Nw --- -Ma 0 -Md 0 -Ms 0 -Mt 0 -Is 0.0 -Id 4.0 -It tcp -Il 1060 -If 2 -Ii 10 -Iv 32 -Pn tcp -Ps 3 -Pa 0 -Pf 0 -Po 0 
s -t 10.019591329 -Hs 0 -Hd -2 -Ni 0 -Nx 231.09 -Ny 13.14 -Nz 0.00 -Ne -1.000000 -Nl AGT -Nw --- -Ma 0 -Md 0 -Ms 0 -Mt 0 -Is 0.0 -Id 4.0 -It tcp -Il 1040 -If 2 -Ii 11 -Iv 32 -Pn tcp -Ps 4 -Pa 0 -Pf 0 -Po 0 
r -t 10.019591329 -Hs 0 -Hd -2 -Ni 0 -Nx 231.09 -Ny 13.14 -Nz 0.00 -Ne -1.000000 -Nl RTR -Nw --- -Ma 0 -Md 0 -Ms 0 -Mt 0 -Is 0.0 -Id 4.0 -It tcp -Il 1040 -If 2 -Ii 11 -Iv 32 -Pn tcp -Ps 4 -Pa 0 -Pf 0 -Po 0 
s -t 10.019591329 -Hs 0 -Hd 4 -Ni 0 -Nx 231.09 -Ny 13.14 -Nz 0.00 -Ne -1.000000 -Nl RTR -Nw --- -Ma 0 -Md 0 -Ms 0 -Mt 0 -Is 0.0 -Id 4.0 -It tcp -Il 1060 -If 2 -Ii 11 -Iv 32 -Pn tcp -Ps 4 -Pa 0 -Pf 0 -Po 0 
r -t 10.029676890 -Hs 4 -Hd 4 -Ni 4 -Nx 93.00 -Ny 86.00 -Nz 0.00 -Ne -1.000000 -Nl AGT -Nw --- -Ma 13a -Md 4 -Ms 0 -Mt 800 -Is 0.0 -Id 4.0 -It tcp -Il 1060 -If 2 -Ii 8 -Iv 32 -Pn tcp -Ps 2 -Pa 0 -Pf 1 -Po 0 
s -t 10.029676890 -Hs 4 -Hd -2 -Ni 4 -Nx 93.00 -Ny 86.00 -Nz 0.00 -Ne -1.000000 -Nl AGT -Nw --- -Ma 0 -Md 0 -Ms 0 -Mt 0 -Is 4.0 -Id 0.0 -It ack -Il 40 -If 2 -Ii 12 -Iv 32 -Pn tcp -Ps 2 -Pa 0 -Pf 0 -Po 0 
r -t 10.029676890 -Hs 4 -Hd -2 -Ni 4 -Nx 93.00 -Ny 86.00 -Nz 0.00 -Ne -1.000000 -Nl RTR -Nw --- -Ma 0 -Md 0 -Ms 0 -Mt 0 -Is 4.0 -Id 0.0 -It ack -Il 40 -If 2 -Ii 12 -Iv 32 -Pn tcp -Ps 2 -Pa 0 -Pf 0 -Po 0 
s -t 10.029676890 -Hs 4 -Hd 0 -Ni 4 -Nx 93.00 -Ny 86.00 -Nz 0.00 -Ne -1.000000 -Nl RTR -Nw --- -Ma 0 -Md 0 -Ms 0 -Mt 0 -Is 4.0 -Id 0.0 -It ack -Il 60 -If 2 -Ii 12 -Iv 32 -Pn tcp -Ps 2 -Pa 0 -Pf 0 -Po 0 
r -t 10.031722451 -Hs 0 -Hd 0 -Ni 0 -Nx 231.06 -Ny 13.17 -Nz 0.00 -Ne -1.000000 -Nl AGT -Nw --- -Ma 13a -Md 0 -Ms 4 -Mt 800 -Is 4.0 -Id 0.0 -It ack -Il 60 -If 2 -Ii 12 -Iv 32 -Pn tcp -Ps 2 -Pa 0 -Pf 1 -Po 0 
s -t 10.031722451 -Hs 0 -Hd -2 -Ni 0 -Nx 231.06 -Ny 13.17 -Nz 0.00 -Ne -1.000000 -Nl AGT -Nw --- -Ma 0 -Md 0 -Ms 0 -Mt 0 -Is 0.0 -Id 4.0 -It tcp -Il 1040 -If 2 -Ii 13 -Iv 32 -Pn tcp -Ps 5 -Pa 0 -Pf 0 -Po 0 
r -t 10.031722451 -Hs 0 -Hd -2 -Ni 0 -Nx 231.06 -Ny 13.17 -Nz 0.00 -Ne -1.000000 -Nl RTR -Nw --- -Ma 0 -Md 0 -Ms 0 -Mt 0 -Is 0.0 -Id 4.0 -It tcp -Il 1040 -If 2 -Ii 13 -Iv 32 -Pn tcp -Ps 5 -Pa 0 -Pf 0 -Po 0 
s -t 10.031722451 -Hs 0 -Hd 4 -Ni 0 -Nx 231.06 -Ny 13.17 -Nz 0.00 -Ne -1.000000 -Nl RTR -Nw --- -Ma 0 -Md 0 -Ms 0 -Mt 0 -Is 0.0 -Id 4.0 -It tcp -Il 1060 -If 2 -Ii 13 -Iv 32 -Pn tcp -Ps 5 -Pa 0 -Pf 0 -Po 0 
s -t 10.031722451 -Hs 0 -Hd -2 -Ni 0 -Nx 231.06 -Ny 13.17 -Nz 0.00 -Ne -1.000000 -Nl AGT -Nw --- -Ma 0 -Md 0 -Ms 0 -Mt 0 -Is 0.0 -Id 4.0 -It tcp -Il 1040 -If 2 -Ii 14 -Iv 32 -Pn tcp -Ps 6 -Pa 0 -Pf 0 -Po 0 
r -t 10.031722451 -Hs 0 -Hd -2 -Ni 0 -Nx 231.06 -Ny 13.17 -Nz 0.00 -Ne -1.000000 -Nl RTR -Nw --- -Ma 0 -Md 0 -Ms 0 -Mt 0 -Is 0.0 -Id 4.0 -It tcp -Il 1040 -If 2 -Ii 14 -Iv 32 -Pn tcp -Ps 6 -Pa 0 -Pf 0 -Po 0 
s -t 10.031722451 -Hs 0 -Hd 4 -Ni 0 -Nx 231.06 -Ny 13.17 -Nz 0.00 -Ne -1.000000 -Nl RTR -Nw --- -Ma 0 -Md 0 -Ms 0 -Mt 0 -Is 0.0 -Id 4.0 -It tcp -Il 1060 -If 2 -Ii 14 -Iv 32 -Pn tcp -Ps 6 -Pa 0 -Pf 0 -Po 0 
r -t 10.041748012 -Hs 4 -Hd 4 -Ni 4 -Nx 93.00 -Ny 86.00 -Nz 0.00 -Ne -1.000000 -Nl AGT -Nw --- -Ma 13a -Md 4 -Ms 0 -Mt 800 -Is 0.0 -Id 4.0 -It tcp -Il 1060 -If 2 -Ii 10 -Iv 32 -Pn tcp -Ps 3 -Pa 0 -Pf 1 -Po 0 
s -t 10.041748012 -Hs 4 -Hd -2 -Ni 4 -Nx 93.00 -Ny 86.00 -Nz 0.00 -Ne -1.000000 -Nl AGT -Nw --- -Ma 0 -Md 0 -Ms 0 -Mt 0 -Is 4.0 -Id 0.0 -It ack -Il 40 -If 2 -Ii 15 -Iv 32 -Pn tcp -Ps 3 -Pa 0 -Pf 0 -Po 0 
r -t 10.041748012 -Hs 4 -Hd -2 -Ni 4 -Nx 93.00 -Ny 86.00 -Nz 0.00 -Ne -1.000000 -Nl RTR -Nw --- -Ma 0 -Md 0 -Ms 0 -Mt 0 -Is 4.0 -Id 0.0 -It ack -Il 40 -If 2 -Ii 15 -Iv 32 -Pn tcp -Ps 3 -Pa 0 -Pf 0 -Po 0 
s -t 10.041748012 -Hs 4 -Hd 0 -Ni 4 -Nx 93.00 -Ny 86.00 -Nz 0.00 -Ne -1.000000 -Nl RTR -Nw --- -Ma 0 -Md 0 -Ms 0 -Mt 0 -Is 4.0 -Id 0.0 -It ack -Il 60 -If 2 -Ii 15 -Iv 32 -Pn tcp -Ps 3 -Pa 0 -Pf 0 -Po 0 
r -t 10.051934093 -Hs 4 -Hd 4 -Ni 4 -Nx 93.00 -Ny 86.00 -Nz 0.00 -Ne -1.000000 -Nl AGT -Nw --- -Ma 13a -Md 4 -Ms 0 -Mt 800 -Is 0.0 -Id 4.0 -It tcp -Il 1060 -If 2 -Ii 11 -Iv 32 -Pn tcp -Ps 4 -Pa 0 -Pf 1 -Po 0 
s -t 10.051934093 -Hs 4 -Hd -2 -Ni 4 -Nx 93.00 -Ny 86.00 -Nz 0.00 -Ne -1.000000 -Nl AGT -Nw --- -Ma 0 -Md 0 -Ms 0 -Mt 0 -Is 4.0 -Id 0.0 -It ack -Il 40 -If 2 -Ii 16 -Iv 32 -Pn tcp -Ps 4 -Pa 0 -Pf 0 -Po 0 
r -t 10.051934093 -Hs 4 -Hd -2 -Ni 4 -Nx 93.00 -Ny 86.00 -Nz 0.00 -Ne -1.000000 -Nl RTR -Nw --- -Ma 0 -Md 0 -Ms 0 -Mt 0 -Is 4.0 -Id 0.0 -It ack -Il 40 -If 2 -Ii 16 -Iv 32 -Pn tcp -Ps 4 -Pa 0 -Pf 0 -Po 0 
s -t 10.051934093 -Hs 4 -Hd 0 -Ni 4 -Nx 93.00 -Ny 86.00 -Nz 0.00 -Ne -1.000000 -Nl RTR -Nw --- -Ma 0 -Md 0 -Ms 0 -Mt 0 -Is 4.0 -Id 0.0 -It ack -Il 60 -If 2 -Ii 16 -Iv 32 -Pn tcp -Ps 4 -Pa 0 -Pf 0 -Po 0 
r -t 10.053979653 -Hs 0 -Hd 0 -Ni 0 -Nx 231.02 -Ny 13.22 -Nz 0.00 -Ne -1.000000 -Nl AGT -Nw --- -Ma 13a -Md 0 -Ms 4 -Mt 800 -Is 4.0 -Id 0.0 -It ack -Il 60 -If 2 -Ii 15 -Iv 32 -Pn tcp -Ps 3 -Pa 0 -Pf 1 -Po 0 
s -t 10.053979653 -Hs 0 -Hd -2 -Ni 0 -Nx 231.02 -Ny 13.22 -Nz 0.00 -Ne -1.000000 -Nl AGT -Nw --- -Ma 0 -Md 0 -Ms 0 -Mt 0 -Is 0.0 -Id 4.0 -It tcp -Il 1040 -If 2 -Ii 17 -Iv 32 -Pn tcp -Ps 7 -Pa 0 -Pf 0 -Po 0 
r -t 10.053979653 -Hs 0 -Hd -2 -Ni 0 -Nx 231.02 -Ny 13.22 -Nz 0.00 -Ne -1.000000 -Nl RTR -Nw --- -Ma 0 -Md 0 -Ms 0 -Mt 0 -Is 0.0 -Id 4.0 -It tcp -Il 1040 -If 2 -Ii 17 -Iv 32 -Pn tcp -Ps 7 -Pa 0 -Pf 0 -Po 0 
s -t 10.053979653 -Hs 0 -Hd 4 -Ni 0 -Nx 231.02 -Ny 13.22 -Nz 0.00 -Ne -1.000000 -Nl RTR -Nw --- -Ma 0 -Md 0 -Ms 0 -Mt 0 -Is 0.0 -Id 4.0 -It tcp -Il 1060 -If 2 -Ii 17 -Iv 32 -Pn tcp -Ps 7 -Pa 0 -Pf 0 -Po 0 
s -t 10.053979653 -Hs 0 -Hd -2 -Ni 0 -Nx 231.02 -Ny 13.22 -Nz 0.00 -Ne -1.000000 -Nl AGT -Nw --- -Ma 0 -Md 0 -Ms 0 -Mt 0 -Is 0.0 -Id 4.0 -It tcp -Il 1040 -If 2 -Ii 18 -Iv 32 -Pn tcp -Ps 8 -Pa 0 -Pf 0 -Po 0 
r -t 10.053979653 -Hs 0 -Hd -2 -Ni 0 -Nx 231.02 -Ny 13.22 -Nz 0.00 -Ne -1.000000 -Nl RTR -Nw --- -Ma 0 -Md 0 -Ms 0 -Mt 0 -Is 0.0 -Id 4.0 -It tcp -Il 1040 -If 2 -Ii 18 -Iv 32 -Pn tcp -Ps 8 -Pa 0 -Pf 0 -Po 0 
s -t 10.053979653 -Hs 0 -Hd 4 -Ni 0 -Nx 231.02 -Ny 13.22 -Nz 0.00 -Ne -1.000000 -Nl RTR -Nw --- -Ma 0 -Md 0 -Ms 0 -Mt 0 -Is 0.0 -Id 4.0 -It tcp -Il 1060 -If 2 -Ii 18 -Iv 32 -Pn tcp -Ps 8 -Pa 0 -Pf 0 -Po 0 
r -t 10.064025214 -Hs 4 -Hd 4 -Ni 4 -Nx 93.00 -Ny 86.00 -Nz 0.00 -Ne -1.000000 -Nl AGT -Nw --- -Ma 13a -Md 4 -Ms 0 -Mt 800 -Is 0.0 -Id 4.0 -It tcp -Il 1060 -If 2 -Ii 13 -Iv 32 -Pn tcp -Ps 5 -Pa 0 -Pf 1 -Po 0 
s -t 10.064025214 -Hs 4 -Hd -2 -Ni 4 -Nx 93.00 -Ny 86.00 -Nz 0.00 -Ne -1.000000 -Nl AGT -Nw --- -Ma 0 -Md 0 -Ms 0 -Mt 0 -Is 4.0 -Id 0.0 -It ack -Il 40 -If 2 -Ii 19 -Iv 32 -Pn tcp -Ps 5 -Pa 0 -Pf 0 -Po 0 
r -t 10.064025214 -Hs 4 -Hd -2 -Ni 4 -Nx 93.00 -Ny 86.00 -Nz 0.00 -Ne -1.000000 -Nl RTR -Nw --- -Ma 0 -Md 0 -Ms 0 -Mt 0 -Is 4.0 -Id 0.0 -It ack -Il 40 -If 2 -Ii 19 -Iv 32 -Pn tcp -Ps 5 -Pa 0 -Pf 0 -Po 0 
s -t 10.064025214 -Hs 4 -Hd 0 -Ni 4 -Nx 93.00 -Ny 86.00 -Nz 0.00 -Ne -1.000000 -Nl RTR -Nw --- -Ma 0 -Md 0 -Ms 0 -Mt 0 -Is 4.0 -Id 0.0 -It ack -Il 60 -If 2 -Ii 19 -Iv 32 -Pn tcp -Ps 5 -Pa 0 -Pf 0 -Po 0 
r -t 10.074231294 -Hs 4 -Hd 4 -Ni 4 -Nx 93.00 -Ny 86.00 -Nz 0.00 -Ne -1.000000 -Nl AGT -Nw --- -Ma 13a -Md 4 -Ms 0 -Mt 800 -Is 0.0 -Id 4.0 -It tcp -Il 1060 -If 2 -Ii 14 -Iv 32 -Pn tcp -Ps 6 -Pa 0 -Pf 1 -Po 0 
s -t 10.074231294 -Hs 4 -Hd -2 -Ni 4 -Nx 93.00 -Ny 86.00 -Nz 0.00 -Ne -1.000000 -Nl AGT -Nw --- -Ma 0 -Md 0 -Ms 0 -Mt 0 -Is 4.0 -Id 0.0 -It ack -Il 40 -If 2 -Ii 20 -Iv 32 -Pn tcp -Ps 6 -Pa 0 -Pf 0 -Po 0 
r -t 10.074231294 -Hs 4 -Hd -2 -Ni 4 -Nx 93.00 -Ny 86.00 -Nz 0.00 -Ne -1.000000 -Nl RTR -Nw --- -Ma 0 -Md 0 -Ms 0 -Mt 0 -Is 4.0 -Id 0.0 -It ack -Il 40 -If 2 -Ii 20 -Iv 32 -Pn tcp -Ps 6 -Pa 0 -Pf 0 -Po 0 
s -t 10.074231294 -Hs 4 -Hd 0 -Ni 4 -Nx 93.00 -Ny 86.00 -Nz 0.00 -Ne -1.000000 -Nl RTR -Nw --- -Ma 0 -Md 0 -Ms 0 -Mt 0 -Is 4.0 -Id 0.0 -It ack -Il 60 -If 2 -Ii 20 -Iv 32 -Pn tcp -Ps 6 -Pa 0 -Pf 0 -Po 0 
r -t 10.084417374 -Hs 4 -Hd 4 -Ni 4 -Nx 93.00 -Ny 86.00 -Nz 0.00 -Ne -1.000000 -Nl AGT -Nw --- -Ma 13a -Md 4 -Ms 0 -Mt 800 -Is 0.0 -Id 4.0 -It tcp -Il 1060 -If 2 -Ii 17 -Iv 32 -Pn tcp -Ps 7 -Pa 0 -Pf 1 -Po 0 
s -t 10.084417374 -Hs 4 -Hd -2 -Ni 4 -Nx 93.00 -Ny 86.00 -Nz 0.00 -Ne -1.000000 -Nl AGT -Nw --- -Ma 0 -Md 0 -Ms 0 -Mt 0 -Is 4.0 -Id 0.0 -It ack -Il 40 -If 2 -Ii 21 -Iv 32 -Pn tcp -Ps 7 -Pa 0 -Pf 0 -Po 0 
r -t 10.084417374 -Hs 4 -Hd -2 -Ni 4 -Nx 93.00 -Ny 86.00 -Nz 0.00 -Ne -1.000000 -Nl RTR -Nw --- -Ma 0 -Md 0 -Ms 0 -Mt 0 -Is 4.0 -Id 0.0 -It ack -Il 40 -If 2 -Ii 21 -Iv 32 -Pn tcp -Ps 7 -Pa 0 -Pf 0 -Po 0 
s -t 10.084417374 -Hs 4 -Hd 0 -Ni 4 -Nx 93.00 -Ny 86.00 -Nz 0.00 -Ne -1.000000 -Nl RTR -Nw --- -Ma 0 -Md 0 -Ms 0 -Mt 0 -Is 4.0 -Id 0.0 -It ack -Il 60 -If 2 -Ii 21 -Iv 32 -Pn tcp -Ps 7 -Pa 0 -Pf 0 -Po 0 
r -t 10.086462933 -Hs 0 -Hd 0 -Ni 0 -Nx 230.97 -Ny 13.30 -Nz 0.00 -Ne -1.000000 -Nl AGT -Nw --- -Ma 13a -Md 0 -Ms 4 -Mt 800 -Is 4.0 -Id 0.0 -It ack -Il 60 -If 2 -Ii 16 -Iv 32 -Pn tcp -Ps 4 -Pa 0 -Pf 1 -Po 0 
s -t 10.086462933 -Hs 0 -Hd -2 -Ni 0 -Nx 230.97 -Ny 13.30 -Nz 0.00 -Ne -1.000000 -Nl AGT -Nw --- -Ma 0 -Md 0 -Ms 0 -Mt 0 -Is 0.0 -Id 4.0 -It tcp -Il 1040 -If 2 -Ii 22 -Iv 32 -Pn tcp -Ps 9 -Pa 0 -Pf 0 -Po 0 
r -t 10.086462933 -Hs 0 -Hd -2 -Ni 0 -Nx 230.97 -Ny 13.30 -Nz 0.00 -Ne -1.000000 -Nl RTR -Nw --- -Ma 0 -Md 0 -Ms 0 -Mt 0 -Is 0.0 -Id 4.0 -It tcp -Il 1040 -If 2 -Ii 22 -Iv 32 -Pn tcp -Ps 9 -Pa 0 -Pf 0 -Po 0 
s -t 10.086462933 -Hs 0 -Hd 4 -Ni 0 -Nx 230.97 -Ny 13.30 -Nz 0.00 -Ne -1.000000 -Nl RTR -Nw --- -Ma 0 -Md 0 -Ms 0 -Mt 0 -Is 0.0 -Id 4.0 -It tcp -Il 1060 -If 2 -Ii 22 -Iv 32 -Pn tcp -Ps 9 -Pa 0 -Pf 0 -Po 0 
s -t 10.086462933 -Hs 0 -Hd -2 -Ni 0 -Nx 230.97 -Ny 13.30 -Nz 0.00 -Ne -1.000000 -Nl AGT -Nw --- -Ma 0 -Md 0 -Ms 0 -Mt 0 -Is 0.0 -Id 4.0 -It tcp -Il 1040 -If 2 -Ii 23 -Iv 32 -Pn tcp -Ps 10 -Pa 0 -Pf 0 -Po 0 
r -t 10.086462933 -Hs 0 -Hd -2 -Ni 0 -Nx 230.97 -Ny 13.30 -Nz 0.00 -Ne -1.000000 -Nl RTR -Nw --- -Ma 0 -Md 0 -Ms 0 -Mt 0 -Is 0.0 -Id 4.0 -It tcp -Il 1040 -If 2 -Ii 23 -Iv 32 -Pn tcp -Ps 10 -Pa 0 -Pf 0 -Po 0 
s -t 10.086462933 -Hs 0 -Hd 4 -Ni 0 -Nx 230.97 -Ny 13.30 -Nz 0.00 -Ne -1.000000 -Nl RTR -Nw --- -Ma 0 -Md 0 -Ms 0 -Mt 0 -Is 0.0 -Id 4.0 -It tcp -Il 1060 -If 2 -Ii 23 -Iv 32 -Pn tcp -Ps 10 -Pa 0 -Pf 0 -Po 0 
r -t 10.088509012 -Hs 0 -Hd 0 -Ni 0 -Nx 230.96 -Ny 13.30 -Nz 0.00 -Ne -1.000000 -Nl AGT -Nw --- -Ma 13a -Md 0 -Ms 4 -Mt 800 -Is 4.0 -Id 0.0 -It ack -Il 60 -If 2 -Ii 19 -Iv 32 -Pn tcp -Ps 5 -Pa 0 -Pf 1 -Po 0 
s -t 10.088509012 -Hs 0 -Hd -2 -Ni 0 -Nx 230.96 -Ny 13.30 -Nz 0.00 -Ne -1.000000 -Nl AGT -Nw --- -Ma 0 -Md 0 -Ms 0 -Mt 0 -Is 0.0 -Id 4.0 -It tcp -Il 1040 -If 2 -Ii 24 -Iv 32 -Pn tcp -Ps 11 -Pa 0 -Pf 0 -Po 0 
r -t 10.088509012 -Hs 0 -Hd -2 -Ni 0 -Nx 230.96 -Ny 13.30 -Nz 0.00 -Ne -1.000000 -Nl RTR -Nw --- -Ma 0 -Md 0 -Ms 0 -Mt 0 -Is 0.0 -Id 4.0 -It tcp -Il 1040 -If 2 -Ii 24 -Iv 32 -Pn tcp -Ps 11 -Pa 0 -Pf 0 -Po 0 
s -t 10.088509012 -Hs 0 -Hd 4 -Ni 0 -Nx 230.96 -Ny 13.30 -Nz 0.00 -Ne -1.000000 -Nl RTR -Nw --- -Ma 0 -Md 0 -Ms 0 -Mt 0 -Is 0.0 -Id 4.0 -It tcp -Il 1060 -If 2 -Ii 24 -Iv 32 -Pn tcp -Ps 11 -Pa 0 -Pf 0 -Po 0 
s -t 10.088509012 -Hs 0 -Hd -2 -Ni 0 -Nx 230.96 -Ny 13.30 -Nz 0.00 -Ne -1.000000 -Nl AGT -Nw --- -Ma 0 -Md 0 -Ms 0 -Mt 0 -Is 0.0 -Id 4.0 -It tcp -Il 1040 -If 2 -Ii 25 -Iv 32 -Pn tcp -Ps 12 -Pa 0 -Pf 0 -Po 0 
r -t 10.088509012 -Hs 0 -Hd -2 -Ni 0 -Nx 230.96 -Ny 13.30 -Nz 0.00 -Ne -1.000000 -Nl RTR -Nw --- -Ma 0 -Md 0 -Ms 0 -Mt 0 -Is 0.0 -Id 4.0 -It tcp -Il 1040 -If 2 -Ii 25 -Iv 32 -Pn tcp -Ps 12 -Pa 0 -Pf 0 -Po 0 
s -t 10.088509012 -Hs 0 -Hd 4 -Ni 0 -Nx 230.96 -Ny 13.30 -Nz 0.00 -Ne -1.000000 -Nl RTR -Nw --- -Ma 0 -Md 0 -Ms 0 -Mt 0 -Is 0.0 -Id 4.0 -It tcp -Il 1060 -If 2 -Ii 25 -Iv 32 -Pn tcp -Ps 12 -Pa 0 -Pf 0 -Po 0 
r -t 10.090615092 -Hs 0 -Hd 0 -Ni 0 -Nx 230.96 -Ny 13.31 -Nz 0.00 -Ne -1.000000 -Nl AGT -Nw --- -Ma 13a -Md 0 -Ms 4 -Mt 800 -Is 4.0 -Id 0.0 -It ack -Il 60 -If 2 -Ii 20 -Iv 32 -Pn tcp -Ps 6 -Pa 0 -Pf 1 -Po 0 
s -t 10.090615092 -Hs 0 -Hd -2 -Ni 0 -Nx 230.96 -Ny 13.31 -Nz 0.00 -Ne -1.000000 -Nl AGT -Nw --- -Ma 0 -Md 0 -Ms 0 -Mt 0 -Is 0.0 -Id 4.0 -It tcp -Il 1040 -If 2 -Ii 26 -Iv 32 -Pn tcp -Ps 13 -Pa 0 -Pf 0 -Po 0 
r -t 10.090615092 -Hs 0 -Hd -2 -Ni 0 -Nx 230.96 -Ny 13.31 -Nz 0.00 -Ne -1.000000 -Nl RTR -Nw --- -Ma 0 -Md 0 -Ms 0 -Mt 0 -Is 0.0 -Id 4.0 -It tcp -Il 1040 -If 2 -Ii 26 -Iv 32 -Pn tcp -Ps 13 -Pa 0 -Pf 0 -Po 0 
s -t 10.090615092 -Hs 0 -Hd 4 -Ni 0 -Nx 230.96 -Ny 13.31 -Nz 0.00 -Ne -1.000000 -Nl RTR -Nw --- -Ma 0 -Md 0 -Ms 0 -Mt 0 -Is 0.0 -Id 4.0 -It tcp -Il 1060 -If 2 -Ii 26 -Iv 32 -Pn tcp -Ps 13 -Pa 0 -Pf 0 -Po 0 
s -t 10.090615092 -Hs 0 -Hd -2 -Ni 0 -Nx 230.96 -Ny 13.31 -Nz 0.00 -Ne -1.000000 -Nl AGT -Nw --- -Ma 0 -Md 0 -Ms 0 -Mt 0 -Is 0.0 -Id 4.0 -It tcp -Il 1040 -If 2 -Ii 27 -Iv 32 -Pn tcp -Ps 14 -Pa 0 -Pf 0 -Po 0 
r -t 10.090615092 -Hs 0 -Hd -2 -Ni 0 -Nx 230.96 -Ny 13.31 -Nz 0.00 -Ne -1.000000 -Nl RTR -Nw --- -Ma 0 -Md 0 -Ms 0 -Mt 0 -Is 0.0 -Id 4.0 -It tcp -Il 1040 -If 2 -Ii 27 -Iv 32 -Pn tcp -Ps 14 -Pa 0 -Pf 0 -Po 0 
s -t 10.090615092 -Hs 0 -Hd 4 -Ni 0 -Nx 230.96 -Ny 13.31 -Nz 0.00 -Ne -1.000000 -Nl RTR -Nw --- -Ma 0 -Md 0 -Ms 0 -Mt 0 -Is 0.0 -Id 4.0 -It tcp -Il 1060 -If 2 -Ii 27 -Iv 32 -Pn tcp -Ps 14 -Pa 0 -Pf 0 -Po 0 
r -t 10.092941171 -Hs 0 -Hd 0 -Ni 0 -Nx 230.96 -Ny 13.31 -Nz 0.00 -Ne -1.000000 -Nl AGT -Nw --- -Ma 13a -Md 0 -Ms 4 -Mt 800 -Is 4.0 -Id 0.0 -It ack -Il 60 -If 2 -Ii 21 -Iv 32 -Pn tcp -Ps 7 -Pa 0 -Pf 1 -Po 0 
s -t 10.092941171 -Hs 0 -Hd -2 -Ni 0 -Nx 230.96 -Ny 13.31 -Nz 0.00 -Ne -1.000000 -Nl AGT -Nw --- -Ma 0 -Md 0 -Ms 0 -Mt 0 -Is 0.0 -Id 4.0 -It tcp -Il 1040 -If 2 -Ii 28 -Iv 32 -Pn tcp -Ps 15 -Pa 0 -Pf 0 -Po 0 
r -t 10.092941171 -Hs 0 -Hd -2 -Ni 0 -Nx 230.96 -Ny 13.31 -Nz 0.00 -Ne -1.000000 -Nl RTR -Nw --- -Ma 0 -Md 0 -Ms 0 -Mt 0 -Is 0.0 -Id 4.0 -It tcp -Il 1040 -If 2 -Ii 28 -Iv 32 -Pn tcp -Ps 15 -Pa 0 -Pf 0 -Po 0 
s -t 10.092941171 -Hs 0 -Hd 4 -Ni 0 -Nx 230.96 -Ny 13.31 -Nz 0.00 -Ne -1.000000 -Nl RTR -Nw --- -Ma 0 -Md 0 -Ms 0 -Mt 0 -Is 0.0 -Id 4.0 -It tcp -Il 1060 -If 2 -Ii 28 -Iv 32 -Pn tcp -Ps 15 -Pa 0 -Pf 0 -Po 0 
s -t 10.092941171 -Hs 0 -Hd -2 -Ni 0 -Nx 230.96 -Ny 13.31 -Nz 0.00 -Ne -1.000000 -Nl AGT -Nw --- -Ma 0 -Md 0 -Ms 0 -Mt 0 -Is 0.0 -Id 4.0 -It tcp -Il 1040 -If 2 -Ii 29 -Iv 32 -Pn tcp -Ps 16 -Pa 0 -Pf 0 -Po 0 
r -t 10.092941171 -Hs 0 -Hd -2 -Ni 0 -Nx 230.96 -Ny 13.31 -Nz 0.00 -Ne -1.000000 -Nl RTR -Nw --- -Ma 0 -Md 0 -Ms 0 -Mt 0 -Is 0.0 -Id 4.0 -It tcp -Il 1040 -If 2 -Ii 29 -Iv 32 -Pn tcp -Ps 16 -Pa 0 -Pf 0 -Po 0 
s -t 10.092941171 -Hs 0 -Hd 4 -Ni 0 -Nx 230.96 -Ny 13.31 -Nz 0.00 -Ne -1.000000 -Nl RTR -Nw --- -Ma 0 -Md 0 -Ms 0 -Mt 0 -Is 0.0 -Id 4.0 -It tcp -Il 1060 -If 2 -Ii 29 -Iv 32 -Pn tcp -Ps 16 -Pa 0 -Pf 0 -Po 0 
r -t 10.102946730 -Hs 4 -Hd 4 -Ni 4 -Nx 93.00 -Ny 86.00 -Nz 0.00 -Ne -1.000000 -Nl AGT -Nw --- -Ma 13a -Md 4 -Ms 0 -Mt 800 -Is 0.0 -Id 4.0 -It tcp -Il 1060 -If 2 -Ii 18 -Iv 32 -Pn tcp -Ps 8 -Pa 0 -Pf 1 -Po 0 
s -t 10.102946730 -Hs 4 -Hd -2 -Ni 4 -Nx 93.00 -Ny 86.00 -Nz 0.00 -Ne -1.000000 -Nl AGT -Nw --- -Ma 0 -Md 0 -Ms 0 -Mt 0 -Is 4.0 -Id 0.0 -It ack -Il 40 -If 2 -Ii 30 -Iv 32 -Pn tcp -Ps 8 -Pa 0 -Pf 0 -Po 0 
r -t 10.102946730 -Hs 4 -Hd -2 -Ni 4 -Nx 93.00 -Ny 86.00 -Nz 0.00 -Ne -1.000000 -Nl RTR -Nw --- -Ma 0 -Md 0 -Ms 0 -Mt 0 -Is 4.0 -Id 0.0 -It ack -Il 40 -If 2 -Ii 30 -Iv 32 -Pn tcp -Ps 8 -Pa 0 -Pf 0 -Po 0 
s -t 10.102946730 -Hs 4 -Hd 0 -Ni 4 -Nx 93.00 -Ny 86.00 -Nz 0.00 -Ne -1.000000 -Nl RTR -Nw --- -Ma 0 -Md 0 -Ms 0 -Mt 0 -Is 4.0 -Id 0.0 -It ack -Il 60 -If 2 -Ii 30 -Iv 32 -Pn tcp -Ps 8 -Pa 0 -Pf 0 -Po 0 
r -t 10.113212809 -Hs 4 -Hd 4 -Ni 4 -Nx 93.00 -Ny 86.00 -Nz 0.00 -Ne -1.000000 -Nl AGT -Nw --- -Ma 13a -Md 4 -Ms 0 -Mt 800 -Is 0.0 -Id 4.0 -It tcp -Il 1060 -If 2 -Ii 22 -Iv 32 -Pn tcp -Ps 9 -Pa 0 -Pf 1 -Po 0 
s -t 10.113212809 -Hs 4 -Hd -2 -Ni 4 -Nx 93.00 -Ny 86.00 -Nz 0.00 -Ne -1.000000 -Nl AGT -Nw --- -Ma 0 -Md 0 -Ms 0 -Mt 0 -Is 4.0 -Id 0.0 -It ack -Il 40 -If 2 -Ii 31 -Iv 32 -Pn tcp -Ps 9 -Pa 0 -Pf 0 -Po 0 
r -t 10.113212809 -Hs 4 -Hd -2 -Ni 4 -Nx 93.00 -Ny 86.00 -Nz 0.00 -Ne -1.000000 -Nl RTR -Nw --- -Ma 0 -Md 0 -Ms 0 -Mt 0 -Is 4.0 -Id 0.0 -It ack -Il 40 -If 2 -Ii 31 -Iv 32 -Pn tcp -Ps 9 -Pa 0 -Pf 0 -Po 0 
s -t 10.113212809 -Hs 4 -Hd 0 -Ni 4 -Nx 93.00 -Ny 86.00 -Nz 0.00 -Ne -1.000000 -Nl RTR -Nw --- -Ma 0 -Md 0 -Ms 0 -Mt 0 -Is 4.0 -Id 0.0 -It ack -Il 60 -If 2 -Ii 31 -Iv 32 -Pn tcp -Ps 9 -Pa 0 -Pf 0 -Po 0 
r -t 10.123378887 -Hs 4 -Hd 4 -Ni 4 -Nx 93.00 -Ny 86.00 -Nz 0.00 -Ne -1.000000 -Nl AGT -Nw --- -Ma 13a -Md 4 -Ms 0 -Mt 800 -Is 0.0 -Id 4.0 -It tcp -Il 1060 -If 2 -Ii 23 -Iv 32 -Pn tcp -Ps 10 -Pa 0 -Pf 1 -Po 0 
s -t 10.123378887 -Hs 4 -Hd -2 -Ni 4 -Nx 93.00 -Ny 86.00 -Nz 0.00 -Ne -1.000000 -Nl AGT -Nw --- -Ma 0 -Md 0 -Ms 0 -Mt 0 -Is 4.0 -Id 0.0 -It ack -Il 40 -If 2 -Ii 32 -Iv 32 -Pn tcp -Ps 10 -Pa 0 -Pf 0 -Po 0 
r -t 10.123378887 -Hs 4 -Hd -2 -Ni 4 -Nx 93.00 -Ny 86.00 -Nz 0.00 -Ne -1.000000 -Nl RTR -Nw --- -Ma 0 -Md 0 -Ms 0 -Mt 0 -Is 4.0 -Id 0.0 -It ack -Il 40 -If 2 -Ii 32 -Iv 32 -Pn tcp -Ps 10 -Pa 0 -Pf 0 -Po 0 
s -t 10.123378887 -Hs 4 -Hd 0 -Ni 4 -Nx 93.00 -Ny 86.00 -Nz 0.00 -Ne -1.000000 -Nl RTR -Nw --- -Ma 0 -Md 0 -Ms 0 -Mt 0 -Is 4.0 -Id 0.0 -It ack -Il 60 -If 2 -Ii 32 -Iv 32 -Pn tcp -Ps 10 -Pa 0 -Pf 0 -Po 0 
r -t 10.125404446 -Hs 0 -Hd 0 -Ni 0 -Nx 230.90 -Ny 13.39 -Nz 0.00 -Ne -1.000000 -Nl AGT -Nw --- -Ma 13a -Md 0 -Ms 4 -Mt 800 -Is 4.0 -Id 0.0 -It ack -Il 60 -If 2 -Ii 30 -Iv 32 -Pn tcp -Ps 8 -Pa 0 -Pf 1 -Po 0 
s -t 10.125404446 -Hs 0 -Hd -2 -Ni 0 -Nx 230.90 -Ny 13.39 -Nz 0.00 -Ne -1.000000 -Nl AGT -Nw --- -Ma 0 -Md 0 -Ms 0 -Mt 0 -Is 0.0 -Id 4.0 -It tcp -Il 1040 -If 2 -Ii 33 -Iv 32 -Pn tcp -Ps 17 -Pa 0 -Pf 0 -Po 0 
r -t 10.125404446 -Hs 0 -Hd -2 -Ni 0 -Nx 230.90 -Ny 13.39 -Nz 0.00 -Ne -1.000000 -Nl RTR -Nw --- -Ma 0 -Md 0 -Ms 0 -Mt 0 -Is 0.0 -Id 4.0 -It tcp -Il 1040 -If 2 -Ii 33 -Iv 32 -Pn tcp -Ps 17 -Pa 0 -Pf 0 -Po 0 
s -t 10.125404446 -Hs 0 -Hd 4 -Ni 0 -Nx 230.90 -Ny 13.39 -Nz 0.00 -Ne -1.000000 -Nl RTR -Nw --- -Ma 0 -Md 0 -Ms 0 -Mt 0 -Is 0.0 -Id 4.0 -It tcp -Il 1060 -If 2 -Ii 33 -Iv 32 -Pn tcp -Ps 17 -Pa 0 -Pf 0 -Po 0 
s -t 10.125404446 -Hs 0 -Hd -2 -Ni 0 -Nx 230.90 -Ny 13.39 -Nz 0.00 -Ne -1.000000 -Nl AGT -Nw --- -Ma 0 -Md 0 -Ms 0 -Mt 0 -Is 0.0 -Id 4.0 -It tcp -Il 1040 -If 2 -Ii 34 -Iv 32 -Pn tcp -Ps 18 -Pa 0 -Pf 0 -Po 0 
r -t 10.125404446 -Hs 0 -Hd -2 -Ni 0 -Nx 230.90 -Ny 13.39 -Nz 0.00 -Ne -1.000000 -Nl RTR -Nw --- -Ma 0 -Md 0 -Ms 0 -Mt 0 -Is 0.0 -Id 4.0 -It tcp -Il 1040 -If 2 -Ii 34 -Iv 32 -Pn tcp -Ps 18 -Pa 0 -Pf 0 -Po 0 
s -t 10.125404446 -Hs 0 -Hd 4 -Ni 0 -Nx 230.90 -Ny 13.39 -Nz 0.00 -Ne -1.000000 -Nl RTR -Nw --- -Ma 0 -Md 0 -Ms 0 -Mt 0 -Is 0.0 -Id 4.0 -It tcp -Il 1060 -If 2 -Ii 34 -Iv 32 -Pn tcp -Ps 18 -Pa 0 -Pf 0 -Po 0 
r -t 10.135650004 -Hs 4 -Hd 4 -Ni 4 -Nx 93.00 -Ny 86.00 -Nz 0.00 -Ne -1.000000 -Nl AGT -Nw --- -Ma 13a -Md 4 -Ms 0 -Mt 800 -Is 0.0 -Id 4.0 -It tcp -Il 1060 -If 2 -Ii 24 -Iv 32 -Pn tcp -Ps 11 -Pa 0 -Pf 1 -Po 0 
s -t 10.135650004 -Hs 4 -Hd -2 -Ni 4 -Nx 93.00 -Ny 86.00 -Nz 0.00 -Ne -1.000000 -Nl AGT -Nw --- -Ma 0 -Md 0 -Ms 0 -Mt 0 -Is 4.0 -Id 0.0 -It ack -Il 40 -If 2 -Ii 35 -Iv 32 -Pn tcp -Ps 11 -Pa 0 -Pf 0 -Po 0 
r -t 10.135650004 -Hs 4 -Hd -2 -Ni 4 -Nx 93.00 -Ny 86.00 -Nz 0.00 -Ne -1.000000 -Nl RTR -Nw --- -Ma 0 -Md 0 -Ms 0 -Mt 0 -Is 4.0 -Id 0.0 -It ack -Il 40 -If 2 -Ii 35 -Iv 32 -Pn tcp -Ps 11 -Pa 0 -Pf 0 -Po 0 
s -t 10.135650004 -Hs 4 -Hd 0 -Ni 4 -Nx 93.00 -Ny 86.00 -Nz 0.00 -Ne -1.000000 -Nl RTR -Nw --- -Ma 0 -Md 0 -Ms 0 -Mt 0 -Is 4.0 -Id 0.0 -It ack -Il 60 -If 2 -Ii 35 -Iv 32 -Pn tcp -Ps 11 -Pa 0 -Pf 0 -Po 0 
r -t 10.145636082 -Hs 4 -Hd 4 -Ni 4 -Nx 93.00 -Ny 86.00 -Nz 0.00 -Ne -1.000000 -Nl AGT -Nw --- -Ma 13a -Md 4 -Ms 0 -Mt 800 -Is 0.0 -Id 4.0 -It tcp -Il 1060 -If 2 -Ii 25 -Iv 32 -Pn tcp -Ps 12 -Pa 0 -Pf 1 -Po 0 
s -t 10.145636082 -Hs 4 -Hd -2 -Ni 4 -Nx 93.00 -Ny 86.00 -Nz 0.00 -Ne -1.000000 -Nl AGT -Nw --- -Ma 0 -Md 0 -Ms 0 -Mt 0 -Is 4.0 -Id 0.0 -It ack -Il 40 -If 2 -Ii 36 -Iv 32 -Pn tcp -Ps 12 -Pa 0 -Pf 0 -Po 0 
r -t 10.145636082 -Hs 4 -Hd -2 -Ni 4 -Nx 93.00 -Ny 86.00 -Nz 0.00 -Ne -1.000000 -Nl RTR -Nw --- -Ma 0 -Md 0 -Ms 0 -Mt 0 -Is 4.0 -Id 0.0 -It ack -Il 40 -If 2 -Ii 36 -Iv 32 -Pn tcp -Ps 12 -Pa 0 -Pf 0 -Po 0 
s -t 10.145636082 -Hs 4 -Hd 0 -Ni 4 -Nx 93.00 -Ny 86.00 -Nz 0.00 -Ne -1.000000 -Nl RTR -Nw --- -Ma 0 -Md 0 -Ms 0 -Mt 0 -Is 4.0 -Id 0.0 -It ack -Il 60 -If 2 -Ii 36 -Iv 32 -Pn tcp -Ps 12 -Pa 0 -Pf 0 -Po 0 
r -t 10.155842159 -Hs 4 -Hd 4 -Ni 4 -Nx 93.00 -Ny 86.00 -Nz 0.00 -Ne -1.000000 -Nl AGT -Nw --- -Ma 13a -Md 4 -Ms 0 -Mt 800 -Is 0.0 -Id 4.0 -It tcp -Il 1060 -If 2 -Ii 26 -Iv 32 -Pn tcp -Ps 13 -Pa 0 -Pf 1 -Po 0 
s -t 10.155842159 -Hs 4 -Hd -2 -Ni 4 -Nx 93.00 -Ny 86.00 -Nz 0.00 -Ne -1.000000 -Nl AGT -Nw --- -Ma 0 -Md 0 -Ms 0 -Mt 0 -Is 4.0 -Id 0.0 -It ack -Il 40 -If 2 -Ii 37 -Iv 32 -Pn tcp -Ps 13 -Pa 0 -Pf 0 -Po 0 
r -t 10.155842159 -Hs 4 -Hd -2 -Ni 4 -Nx 93.00 -Ny 86.00 -Nz 0.00 -Ne -1.000000 -Nl RTR -Nw --- -Ma 0 -Md 0 -Ms 0 -Mt 0 -Is 4.0 -Id 0.0 -It ack -Il 40 -If 2 -Ii 37 -Iv 32 -Pn tcp -Ps 13 -Pa 0 -Pf 0 -Po 0 
s -t 10.155842159 -Hs 4 -Hd 0 -Ni 4 -Nx 93.00 -Ny 86.00 -Nz 0.00 -Ne -1.000000 -Nl RTR -Nw --- -Ma 0 -Md 0 -Ms 0 -Mt 0 -Is 4.0 -Id 0.0 -It ack -Il 60 -If 2 -Ii 37 -Iv 32 -Pn tcp -Ps 13 -Pa 0 -Pf 0 -Po 0 