V -t * -v 1.0a5 -a 0
A -t * -n 1 -p 0 -o 0x7fffffff -c 30 -a 1
A -t * -h 1 -m 1073741823 -s 0
n -t * -a 4 -s 4 -S UP -v circle -c black -i black
n -t * -a 0 -s 0 -S UP -v circle -c black -i black
n -t * -a 5 -s 5 -S UP -v circle -c black -i black
n -t * -a 1 -s 1 -S UP -v circle -c black -i black
n -t * -a 2 -s 2 -S UP -v circle -c black -i black
n -t * -a 3 -s 3 -S UP -v circle -c black -i black
l -t * -s 0 -d 1 -S UP -r 1000000 -D 0.01 -c black
l -t * -s 1 -d 2 -S UP -r 1000000 -D 0.01 -c black
l -t * -s 2 -d 3 -S UP -r 1000000 -D 0.01 -c black
l -t * -s 3 -d 4 -S UP -r 1000000 -D 0.01 -c black
l -t * -s 4 -d 5 -S UP -r 1000000 -D 0.01 -c black
+ -t 0.000169788487334637 -s 0 -d 1 -p rtProtoDV -e 6 -c 0 -i 0 -a 0 -x {0.2 1.1 -1 ------- null}
- -t 0.000169788487334637 -s 0 -d 1 -p rtProtoDV -e 6 -c 0 -i 0 -a 0 -x {0.2 1.1 -1 ------- null}
h -t 0.000169788487334637 -s 0 -d 1 -p rtProtoDV -e 6 -c 0 -i 0 -a 0 -x {0.2 1.1 -1 ------- null}
+ -t 0.00710233021858257 -s 2 -d 1 -p rtProtoDV -e 6 -c 0 -i 1 -a 0 -x {2.1 1.1 -1 ------- null}
- -t 0.00710233021858257 -s 2 -d 1 -p rtProtoDV -e 6 -c 0 -i 1 -a 0 -x {2.1 1.1 -1 ------- null}
h -t 0.00710233021858257 -s 2 -d 1 -p rtProtoDV -e 6 -c 0 -i 1 -a 0 -x {2.1 1.1 -1 ------- null}
+ -t 0.00710233021858257 -s 2 -d 3 -p rtProtoDV -e 6 -c 0 -i 2 -a 0 -x {2.1 3.1 -1 ------- null}
- -t 0.00710233021858257 -s 2 -d 3 -p rtProtoDV -e 6 -c 0 -i 2 -a 0 -x {2.1 3.1 -1 ------- null}
h -t 0.00710233021858257 -s 2 -d 3 -p rtProtoDV -e 6 -c 0 -i 2 -a 0 -x {2.1 3.1 -1 ------- null}
r -t 0.0102177884873346 -s 0 -d 1 -p rtProtoDV -e 6 -c 0 -i 0 -a 0 -x {0.2 1.1 -1 ------- null}
r -t 0.0171503302185826 -s 2 -d 1 -p rtProtoDV -e 6 -c 0 -i 1 -a 0 -x {2.1 1.1 -1 ------- null}
+ -t 0.0171503302185826 -s 1 -d 0 -p rtProtoDV -e 6 -c 0 -i 3 -a 0 -x {1.1 0.2 -1 ------- null}
- -t 0.0171503302185826 -s 1 -d 0 -p rtProtoDV -e 6 -c 0 -i 3 -a 0 -x {1.1 0.2 -1 ------- null}
h -t 0.0171503302185826 -s 1 -d 0 -p rtProtoDV -e 6 -c 0 -i 3 -a 0 -x {1.1 0.2 -1 ------- null}
+ -t 0.0171503302185826 -s 1 -d 2 -p rtProtoDV -e 6 -c 0 -i 4 -a 0 -x {1.1 2.1 -1 ------- null}
- -t 0.0171503302185826 -s 1 -d 2 -p rtProtoDV -e 6 -c 0 -i 4 -a 0 -x {1.1 2.1 -1 ------- null}
h -t 0.0171503302185826 -s 1 -d 2 -p rtProtoDV -e 6 -c 0 -i 4 -a 0 -x {1.1 2.1 -1 ------- null}
r -t 0.0171503302185826 -s 2 -d 3 -p rtProtoDV -e 6 -c 0 -i 2 -a 0 -x {2.1 3.1 -1 ------- null}
+ -t 0.0171503302185826 -s 3 -d 2 -p rtProtoDV -e 6 -c 0 -i 5 -a 0 -x {3.1 2.1 -1 ------- null}
- -t 0.0171503302185826 -s 3 -d 2 -p rtProtoDV -e 6 -c 0 -i 5 -a 0 -x {3.1 2.1 -1 ------- null}
h -t 0.0171503302185826 -s 3 -d 2 -p rtProtoDV -e 6 -c 0 -i 5 -a 0 -x {3.1 2.1 -1 ------- null}
+ -t 0.0171503302185826 -s 3 -d 4 -p rtProtoDV -e 6 -c 0 -i 6 -a 0 -x {3.1 4.1 -1 ------- null}
- -t 0.0171503302185826 -s 3 -d 4 -p rtProtoDV -e 6 -c 0 -i 6 -a 0 -x {3.1 4.1 -1 ------- null}
h -t 0.0171503302185826 -s 3 -d 4 -p rtProtoDV -e 6 -c 0 -i 6 -a 0 -x {3.1 4.1 -1 ------- null}
r -t 0.0271983302185826 -s 1 -d 0 -p rtProtoDV -e 6 -c 0 -i 3 -a 0 -x {1.1 0.2 -1 ------- null}
+ -t 0.0271983302185826 -s 0 -d 1 -p rtProtoDV -e 6 -c 0 -i 7 -a 0 -x {0.2 1.1 -1 ------- null}
- -t 0.0271983302185826 -s 0 -d 1 -p rtProtoDV -e 6 -c 0 -i 7 -a 0 -x {0.2 1.1 -1 ------- null}
h -t 0.0271983302185826 -s 0 -d 1 -p rtProtoDV -e 6 -c 0 -i 7 -a 0 -x {0.2 1.1 -1 ------- null}
r -t 0.0271983302185826 -s 1 -d 2 -p rtProtoDV -e 6 -c 0 -i 4 -a 0 -x {1.1 2.1 -1 ------- null}
+ -t 0.0271983302185826 -s 2 -d 1 -p rtProtoDV -e 6 -c 0 -i 8 -a 0 -x {2.1 1.1 -1 ------- null}
- -t 0.0271983302185826 -s 2 -d 1 -p rtProtoDV -e 6 -c 0 -i 8 -a 0 -x {2.1 1.1 -1 ------- null}
h -t 0.0271983302185826 -s 2 -d 1 -p rtProtoDV -e 6 -c 0 -i 8 -a 0 -x {2.1 1.1 -1 ------- null}
+ -t 0.0271983302185826 -s 2 -d 3 -p rtProtoDV -e 6 -c 0 -i 9 -a 0 -x {2.1 3.1 -1 ------- null}
- -t 0.0271983302185826 -s 2 -d 3 -p rtProtoDV -e 6 -c 0 -i 9 -a 0 -x {2.1 3.1 -1 ------- null}
h -t 0.0271983302185826 -s 2 -d 3 -p rtProtoDV -e 6 -c 0 -i 9 -a 0 -x {2.1 3.1 -1 ------- null}
r -t 0.0271983302185826 -s 3 -d 2 -p rtProtoDV -e 6 -c 0 -i 5 -a 0 -x {3.1 2.1 -1 ------- null}
+ -t 0.0271983302185826 -s 2 -d 1 -p rtProtoDV -e 6 -c 0 -i 10 -a 0 -x {2.1 1.1 -1 ------- null}
+ -t 0.0271983302185826 -s 2 -d 3 -p rtProtoDV -e 6 -c 0 -i 11 -a 0 -x {2.1 3.1 -1 ------- null}
r -t 0.0271983302185826 -s 3 -d 4 -p rtProtoDV -e 6 -c 0 -i 6 -a 0 -x {3.1 4.1 -1 ------- null}
+ -t 0.0271983302185826 -s 4 -d 3 -p rtProtoDV -e 6 -c 0 -i 12 -a 0 -x {4.1 3.1 -1 ------- null}
- -t 0.0271983302185826 -s 4 -d 3 -p rtProtoDV -e 6 -c 0 -i 12 -a 0 -x {4.1 3.1 -1 ------- null}
h -t 0.0271983302185826 -s 4 -d 3 -p rtProtoDV -e 6 -c 0 -i 12 -a 0 -x {4.1 3.1 -1 ------- null}
+ -t 0.0271983302185826 -s 4 -d 5 -p rtProtoDV -e 6 -c 0 -i 13 -a 0 -x {4.1 5.2 -1 ------- null}
- -t 0.0271983302185826 -s 4 -d 5 -p rtProtoDV -e 6 -c 0 -i 13 -a 0 -x {4.1 5.2 -1 ------- null}
h -t 0.0271983302185826 -s 4 -d 5 -p rtProtoDV -e 6 -c 0 -i 13 -a 0 -x {4.1 5.2 -1 ------- null}
- -t 0.0272463302185826 -s 2 -d 1 -p rtProtoDV -e 6 -c 0 -i 10 -a 0 -x {2.1 1.1 -1 ------- null}
h -t 0.0272463302185826 -s 2 -d 1 -p rtProtoDV -e 6 -c 0 -i 10 -a 0 -x {2.1 1.1 -1 ------- null}
- -t 0.0272463302185826 -s 2 -d 3 -p rtProtoDV -e 6 -c 0 -i 11 -a 0 -x {2.1 3.1 -1 ------- null}
h -t 0.0272463302185826 -s 2 -d 3 -p rtProtoDV -e 6 -c 0 -i 11 -a 0 -x {2.1 3.1 -1 ------- null}
r -t 0.0372463302185826 -s 0 -d 1 -p rtProtoDV -e 6 -c 0 -i 7 -a 0 -x {0.2 1.1 -1 ------- null}
r -t 0.0372463302185826 -s 2 -d 1 -p rtProtoDV -e 6 -c 0 -i 8 -a 0 -x {2.1 1.1 -1 ------- null}
r -t 0.0372463302185826 -s 2 -d 3 -p rtProtoDV -e 6 -c 0 -i 9 -a 0 -x {2.1 3.1 -1 ------- null}
+ -t 0.0372463302185826 -s 3 -d 2 -p rtProtoDV -e 6 -c 0 -i 14 -a 0 -x {3.1 2.1 -1 ------- null}
- -t 0.0372463302185826 -s 3 -d 2 -p rtProtoDV -e 6 -c 0 -i 14 -a 0 -x {3.1 2.1 -1 ------- null}
h -t 0.0372463302185826 -s 3 -d 2 -p rtProtoDV -e 6 -c 0 -i 14 -a 0 -x {3.1 2.1 -1 ------- null}
+ -t 0.0372463302185826 -s 3 -d 4 -p rtProtoDV -e 6 -c 0 -i 15 -a 0 -x {3.1 4.1 -1 ------- null}
- -t 0.0372463302185826 -s 3 -d 4 -p rtProtoDV -e 6 -c 0 -i 15 -a 0 -x {3.1 4.1 -1 ------- null}
h -t 0.0372463302185826 -s 3 -d 4 -p rtProtoDV -e 6 -c 0 -i 15 -a 0 -x {3.1 4.1 -1 ------- null}
r -t 0.0372463302185826 -s 4 -d 3 -p rtProtoDV -e 6 -c 0 -i 12 -a 0 -x {4.1 3.1 -1 ------- null}
+ -t 0.0372463302185826 -s 3 -d 2 -p rtProtoDV -e 6 -c 0 -i 16 -a 0 -x {3.1 2.1 -1 ------- null}
+ -t 0.0372463302185826 -s 3 -d 4 -p rtProtoDV -e 6 -c 0 -i 17 -a 0 -x {3.1 4.1 -1 ------- null}
r -t 0.0372463302185826 -s 4 -d 5 -p rtProtoDV -e 6 -c 0 -i 13 -a 0 -x {4.1 5.2 -1 ------- null}
+ -t 0.0372463302185826 -s 5 -d 4 -p rtProtoDV -e 6 -c 0 -i 18 -a 0 -x {5.2 4.1 -1 ------- null}
- -t 0.0372463302185826 -s 5 -d 4 -p rtProtoDV -e 6 -c 0 -i 18 -a 0 -x {5.2 4.1 -1 ------- null}
h -t 0.0372463302185826 -s 5 -d 4 -p rtProtoDV -e 6 -c 0 -i 18 -a 0 -x {5.2 4.1 -1 ------- null}
r -t 0.0372943302185826 -s 2 -d 1 -p rtProtoDV -e 6 -c 0 -i 10 -a 0 -x {2.1 1.1 -1 ------- null}
+ -t 0.0372943302185826 -s 1 -d 0 -p rtProtoDV -e 6 -c 0 -i 19 -a 0 -x {1.1 0.2 -1 ------- null}
- -t 0.0372943302185826 -s 1 -d 0 -p rtProtoDV -e 6 -c 0 -i 19 -a 0 -x {1.1 0.2 -1 ------- null}
h -t 0.0372943302185826 -s 1 -d 0 -p rtProtoDV -e 6 -c 0 -i 19 -a 0 -x {1.1 0.2 -1 ------- null}
+ -t 0.0372943302185826 -s 1 -d 2 -p rtProtoDV -e 6 -c 0 -i 20 -a 0 -x {1.1 2.1 -1 ------- null}
- -t 0.0372943302185826 -s 1 -d 2 -p rtProtoDV -e 6 -c 0 -i 20 -a 0 -x {1.1 2.1 -1 ------- null}
h -t 0.0372943302185826 -s 1 -d 2 -p rtProtoDV -e 6 -c 0 -i 20 -a 0 -x {1.1 2.1 -1 ------- null}
r -t 0.0372943302185826 -s 2 -d 3 -p rtProtoDV -e 6 -c 0 -i 11 -a 0 -x {2.1 3.1 -1 ------- null}
- -t 0.0372943302185826 -s 3 -d 2 -p rtProtoDV -e 6 -c 0 -i 16 -a 0 -x {3.1 2.1 -1 ------- null}
h -t 0.0372943302185826 -s 3 -d 2 -p rtProtoDV -e 6 -c 0 -i 16 -a 0 -x {3.1 2.1 -1 ------- null}
- -t 0.0372943302185826 -s 3 -d 4 -p rtProtoDV -e 6 -c 0 -i 17 -a 0 -x {3.1 4.1 -1 ------- null}
h -t 0.0372943302185826 -s 3 -d 4 -p rtProtoDV -e 6 -c 0 -i 17 -a 0 -x {3.1 4.1 -1 ------- null}
+ -t 0.04406133552271 -s 3 -d 2 -p rtProtoDV -e 6 -c 0 -i 21 -a 0 -x {3.1 2.1 -1 ------- null}
- -t 0.04406133552271 -s 3 -d 2 -p rtProtoDV -e 6 -c 0 -i 21 -a 0 -x {3.1 2.1 -1 ------- null}
h -t 0.04406133552271 -s 3 -d 2 -p rtProtoDV -e 6 -c 0 -i 21 -a 0 -x {3.1 2.1 -1 ------- null}
+ -t 0.04406133552271 -s 3 -d 4 -p rtProtoDV -e 6 -c 0 -i 22 -a 0 -x {3.1 4.1 -1 ------- null}
- -t 0.04406133552271 -s 3 -d 4 -p rtProtoDV -e 6 -c 0 -i 22 -a 0 -x {3.1 4.1 -1 ------- null}
h -t 0.04406133552271 -s 3 -d 4 -p rtProtoDV -e 6 -c 0 -i 22 -a 0 -x {3.1 4.1 -1 ------- null}
r -t 0.0472943302185826 -s 3 -d 2 -p rtProtoDV -e 6 -c 0 -i 14 -a 0 -x {3.1 2.1 -1 ------- null}
r -t 0.0472943302185826 -s 3 -d 4 -p rtProtoDV -e 6 -c 0 -i 15 -a 0 -x {3.1 4.1 -1 ------- null}
+ -t 0.0472943302185826 -s 4 -d 3 -p rtProtoDV -e 6 -c 0 -i 23 -a 0 -x {4.1 3.1 -1 ------- null}
- -t 0.0472943302185826 -s 4 -d 3 -p rtProtoDV -e 6 -c 0 -i 23 -a 0 -x {4.1 3.1 -1 ------- null}
h -t 0.0472943302185826 -s 4 -d 3 -p rtProtoDV -e 6 -c 0 -i 23 -a 0 -x {4.1 3.1 -1 ------- null}
+ -t 0.0472943302185826 -s 4 -d 5 -p rtProtoDV -e 6 -c 0 -i 24 -a 0 -x {4.1 5.2 -1 ------- null}
- -t 0.0472943302185826 -s 4 -d 5 -p rtProtoDV -e 6 -c 0 -i 24 -a 0 -x {4.1 5.2 -1 ------- null}
h -t 0.0472943302185826 -s 4 -d 5 -p rtProtoDV -e 6 -c 0 -i 24 -a 0 -x {4.1 5.2 -1 ------- null}
r -t 0.0472943302185826 -s 5 -d 4 -p rtProtoDV -e 6 -c 0 -i 18 -a 0 -x {5.2 4.1 -1 ------- null}
r -t 0.0473423302185826 -s 1 -d 0 -p rtProtoDV -e 6 -c 0 -i 19 -a 0 -x {1.1 0.2 -1 ------- null}
+ -t 0.0473423302185826 -s 0 -d 1 -p rtProtoDV -e 6 -c 0 -i 25 -a 0 -x {0.2 1.1 -1 ------- null}
- -t 0.0473423302185826 -s 0 -d 1 -p rtProtoDV -e 6 -c 0 -i 25 -a 0 -x {0.2 1.1 -1 ------- null}
h -t 0.0473423302185826 -s 0 -d 1 -p rtProtoDV -e 6 -c 0 -i 25 -a 0 -x {0.2 1.1 -1 ------- null}
r -t 0.0473423302185826 -s 1 -d 2 -p rtProtoDV -e 6 -c 0 -i 20 -a 0 -x {1.1 2.1 -1 ------- null}
r -t 0.0473423302185826 -s 3 -d 2 -p rtProtoDV -e 6 -c 0 -i 16 -a 0 -x {3.1 2.1 -1 ------- null}
+ -t 0.0473423302185826 -s 2 -d 1 -p rtProtoDV -e 6 -c 0 -i 26 -a 0 -x {2.1 1.1 -1 ------- null}
- -t 0.0473423302185826 -s 2 -d 1 -p rtProtoDV -e 6 -c 0 -i 26 -a 0 -x {2.1 1.1 -1 ------- null}
h -t 0.0473423302185826 -s 2 -d 1 -p rtProtoDV -e 6 -c 0 -i 26 -a 0 -x {2.1 1.1 -1 ------- null}
+ -t 0.0473423302185826 -s 2 -d 3 -p rtProtoDV -e 6 -c 0 -i 27 -a 0 -x {2.1 3.1 -1 ------- null}
- -t 0.0473423302185826 -s 2 -d 3 -p rtProtoDV -e 6 -c 0 -i 27 -a 0 -x {2.1 3.1 -1 ------- null}
h -t 0.0473423302185826 -s 2 -d 3 -p rtProtoDV -e 6 -c 0 -i 27 -a 0 -x {2.1 3.1 -1 ------- null}
r -t 0.0473423302185826 -s 3 -d 4 -p rtProtoDV -e 6 -c 0 -i 17 -a 0 -x {3.1 4.1 -1 ------- null}
r -t 0.05410933552271 -s 3 -d 2 -p rtProtoDV -e 6 -c 0 -i 21 -a 0 -x {3.1 2.1 -1 ------- null}
r -t 0.05410933552271 -s 3 -d 4 -p rtProtoDV -e 6 -c 0 -i 22 -a 0 -x {3.1 4.1 -1 ------- null}
r -t 0.0573423302185826 -s 4 -d 3 -p rtProtoDV -e 6 -c 0 -i 23 -a 0 -x {4.1 3.1 -1 ------- null}
r -t 0.0573423302185826 -s 4 -d 5 -p rtProtoDV -e 6 -c 0 -i 24 -a 0 -x {4.1 5.2 -1 ------- null}
+ -t 0.0573423302185826 -s 5 -d 4 -p rtProtoDV -e 6 -c 0 -i 28 -a 0 -x {5.2 4.1 -1 ------- null}
- -t 0.0573423302185826 -s 5 -d 4 -p rtProtoDV -e 6 -c 0 -i 28 -a 0 -x {5.2 4.1 -1 ------- null}
h -t 0.0573423302185826 -s 5 -d 4 -p rtProtoDV -e 6 -c 0 -i 28 -a 0 -x {5.2 4.1 -1 ------- null}
r -t 0.0573903302185826 -s 0 -d 1 -p rtProtoDV -e 6 -c 0 -i 25 -a 0 -x {0.2 1.1 -1 ------- null}
r -t 0.0573903302185826 -s 2 -d 1 -p rtProtoDV -e 6 -c 0 -i 26 -a 0 -x {2.1 1.1 -1 ------- null}
+ -t 0.0573903302185826 -s 1 -d 0 -p rtProtoDV -e 6 -c 0 -i 29 -a 0 -x {1.1 0.2 -1 ------- null}
- -t 0.0573903302185826 -s 1 -d 0 -p rtProtoDV -e 6 -c 0 -i 29 -a 0 -x {1.1 0.2 -1 ------- null}
h -t 0.0573903302185826 -s 1 -d 0 -p rtProtoDV -e 6 -c 0 -i 29 -a 0 -x {1.1 0.2 -1 ------- null}
+ -t 0.0573903302185826 -s 1 -d 2 -p rtProtoDV -e 6 -c 0 -i 30 -a 0 -x {1.1 2.1 -1 ------- null}
- -t 0.0573903302185826 -s 1 -d 2 -p rtProtoDV -e 6 -c 0 -i 30 -a 0 -x {1.1 2.1 -1 ------- null}
h -t 0.0573903302185826 -s 1 -d 2 -p rtProtoDV -e 6 -c 0 -i 30 -a 0 -x {1.1 2.1 -1 ------- null}
r -t 0.0573903302185826 -s 2 -d 3 -p rtProtoDV -e 6 -c 0 -i 27 -a 0 -x {2.1 3.1 -1 ------- null}
r -t 0.0673903302185826 -s 5 -d 4 -p rtProtoDV -e 6 -c 0 -i 28 -a 0 -x {5.2 4.1 -1 ------- null}
r -t 0.0674383302185826 -s 1 -d 0 -p rtProtoDV -e 6 -c 0 -i 29 -a 0 -x {1.1 0.2 -1 ------- null}
+ -t 0.0674383302185826 -s 0 -d 1 -p rtProtoDV -e 6 -c 0 -i 31 -a 0 -x {0.2 1.1 -1 ------- null}
- -t 0.0674383302185826 -s 0 -d 1 -p rtProtoDV -e 6 -c 0 -i 31 -a 0 -x {0.2 1.1 -1 ------- null}
h -t 0.0674383302185826 -s 0 -d 1 -p rtProtoDV -e 6 -c 0 -i 31 -a 0 -x {0.2 1.1 -1 ------- null}
r -t 0.0674383302185826 -s 1 -d 2 -p rtProtoDV -e 6 -c 0 -i 30 -a 0 -x {1.1 2.1 -1 ------- null}
r -t 0.0774863302185826 -s 0 -d 1 -p rtProtoDV -e 6 -c 0 -i 31 -a 0 -x {0.2 1.1 -1 ------- null}
+ -t 0.22058669092161 -s 4 -d 3 -p rtProtoDV -e 6 -c 0 -i 32 -a 0 -x {4.1 3.1 -1 ------- null}
- -t 0.22058669092161 -s 4 -d 3 -p rtProtoDV -e 6 -c 0 -i 32 -a 0 -x {4.1 3.1 -1 ------- null}
h -t 0.22058669092161 -s 4 -d 3 -p rtProtoDV -e 6 -c 0 -i 32 -a 0 -x {4.1 3.1 -1 ------- null}
+ -t 0.22058669092161 -s 4 -d 5 -p rtProtoDV -e 6 -c 0 -i 33 -a 0 -x {4.1 5.2 -1 ------- null}
- -t 0.22058669092161 -s 4 -d 5 -p rtProtoDV -e 6 -c 0 -i 33 -a 0 -x {4.1 5.2 -1 ------- null}
h -t 0.22058669092161 -s 4 -d 5 -p rtProtoDV -e 6 -c 0 -i 33 -a 0 -x {4.1 5.2 -1 ------- null}
r -t 0.23063469092161 -s 4 -d 3 -p rtProtoDV -e 6 -c 0 -i 32 -a 0 -x {4.1 3.1 -1 ------- null}
r -t 0.23063469092161 -s 4 -d 5 -p rtProtoDV -e 6 -c 0 -i 33 -a 0 -x {4.1 5.2 -1 ------- null}
+ -t 0.277940357931862 -s 1 -d 0 -p rtProtoDV -e 6 -c 0 -i 34 -a 0 -x {1.1 0.2 -1 ------- null}
- -t 0.277940357931862 -s 1 -d 0 -p rtProtoDV -e 6 -c 0 -i 34 -a 0 -x {1.1 0.2 -1 ------- null}
h -t 0.277940357931862 -s 1 -d 0 -p rtProtoDV -e 6 -c 0 -i 34 -a 0 -x {1.1 0.2 -1 ------- null}
+ -t 0.277940357931862 -s 1 -d 2 -p rtProtoDV -e 6 -c 0 -i 35 -a 0 -x {1.1 2.1 -1 ------- null}
- -t 0.277940357931862 -s 1 -d 2 -p rtProtoDV -e 6 -c 0 -i 35 -a 0 -x {1.1 2.1 -1 ------- null}
h -t 0.277940357931862 -s 1 -d 2 -p rtProtoDV -e 6 -c 0 -i 35 -a 0 -x {1.1 2.1 -1 ------- null}
r -t 0.287988357931862 -s 1 -d 0 -p rtProtoDV -e 6 -c 0 -i 34 -a 0 -x {1.1 0.2 -1 ------- null}
r -t 0.287988357931862 -s 1 -d 2 -p rtProtoDV -e 6 -c 0 -i 35 -a 0 -x {1.1 2.1 -1 ------- null}
+ -t 0.399577726796073 -s 5 -d 4 -p rtProtoDV -e 6 -c 0 -i 36 -a 0 -x {5.2 4.1 -1 ------- null}
- -t 0.399577726796073 -s 5 -d 4 -p rtProtoDV -e 6 -c 0 -i 36 -a 0 -x {5.2 4.1 -1 ------- null}
h -t 0.399577726796073 -s 5 -d 4 -p rtProtoDV -e 6 -c 0 -i 36 -a 0 -x {5.2 4.1 -1 ------- null}
r -t 0.409625726796073 -s 5 -d 4 -p rtProtoDV -e 6 -c 0 -i 36 -a 0 -x {5.2 4.1 -1 ------- null}
+ -t 0.5 -s 0 -d 1 -p tcp -e 40 -c 0 -i 37 -a 0 -x {0.0 5.0 0 ------- null}
- -t 0.5 -s 0 -d 1 -p tcp -e 40 -c 0 -i 37 -a 0 -x {0.0 5.0 0 ------- null}
h -t 0.5 -s 0 -d 1 -p tcp -e 40 -c 0 -i 37 -a 0 -x {0.0 5.0 -1 ------- null}
r -t 0.51032 -s 0 -d 1 -p tcp -e 40 -c 0 -i 37 -a 0 -x {0.0 5.0 0 ------- null}
+ -t 0.51032 -s 1 -d 2 -p tcp -e 40 -c 0 -i 37 -a 0 -x {0.0 5.0 0 ------- null}
- -t 0.51032 -s 1 -d 2 -p tcp -e 40 -c 0 -i 37 -a 0 -x {0.0 5.0 0 ------- null}
h -t 0.51032 -s 1 -d 2 -p tcp -e 40 -c 0 -i 37 -a 0 -x {0.0 5.0 -1 ------- null}
r -t 0.52064 -s 1 -d 2 -p tcp -e 40 -c 0 -i 37 -a 0 -x {0.0 5.0 0 ------- null}
+ -t 0.52064 -s 2 -d 3 -p tcp -e 40 -c 0 -i 37 -a 0 -x {0.0 5.0 0 ------- null}
- -t 0.52064 -s 2 -d 3 -p tcp -e 40 -c 0 -i 37 -a 0 -x {0.0 5.0 0 ------- null}
h -t 0.52064 -s 2 -d 3 -p tcp -e 40 -c 0 -i 37 -a 0 -x {0.0 5.0 -1 ------- null}
r -t 0.53096 -s 2 -d 3 -p tcp -e 40 -c 0 -i 37 -a 0 -x {0.0 5.0 0 ------- null}
+ -t 0.53096 -s 3 -d 4 -p tcp -e 40 -c 0 -i 37 -a 0 -x {0.0 5.0 0 ------- null}
- -t 0.53096 -s 3 -d 4 -p tcp -e 40 -c 0 -i 37 -a 0 -x {0.0 5.0 0 ------- null}
h -t 0.53096 -s 3 -d 4 -p tcp -e 40 -c 0 -i 37 -a 0 -x {0.0 5.0 -1 ------- null}
r -t 0.54128 -s 3 -d 4 -p tcp -e 40 -c 0 -i 37 -a 0 -x {0.0 5.0 0 ------- null}
+ -t 0.54128 -s 4 -d 5 -p tcp -e 40 -c 0 -i 37 -a 0 -x {0.0 5.0 0 ------- null}
- -t 0.54128 -s 4 -d 5 -p tcp -e 40 -c 0 -i 37 -a 0 -x {0.0 5.0 0 ------- null}
h -t 0.54128 -s 4 -d 5 -p tcp -e 40 -c 0 -i 37 -a 0 -x {0.0 5.0 -1 ------- null}
r -t 0.5516 -s 4 -d 5 -p tcp -e 40 -c 0 -i 37 -a 0 -x {0.0 5.0 0 ------- null}
+ -t 0.5516 -s 5 -d 4 -p ack -e 40 -c 0 -i 38 -a 0 -x {5.0 0.0 0 ------- null}
- -t 0.5516 -s 5 -d 4 -p ack -e 40 -c 0 -i 38 -a 0 -x {5.0 0.0 0 ------- null}
h -t 0.5516 -s 5 -d 4 -p ack -e 40 -c 0 -i 38 -a 0 -x {5.0 0.0 -1 ------- null}
r -t 0.56192 -s 5 -d 4 -p ack -e 40 -c 0 -i 38 -a 0 -x {5.0 0.0 0 ------- null}
+ -t 0.56192 -s 4 -d 3 -p ack -e 40 -c 0 -i 38 -a 0 -x {5.0 0.0 0 ------- null}
- -t 0.56192 -s 4 -d 3 -p ack -e 40 -c 0 -i 38 -a 0 -x {5.0 0.0 0 ------- null}
h -t 0.56192 -s 4 -d 3 -p ack -e 40 -c 0 -i 38 -a 0 -x {5.0 0.0 -1 ------- null}
r -t 0.57224 -s 4 -d 3 -p ack -e 40 -c 0 -i 38 -a 0 -x {5.0 0.0 0 ------- null}
+ -t 0.57224 -s 3 -d 2 -p ack -e 40 -c 0 -i 38 -a 0 -x {5.0 0.0 0 ------- null}
- -t 0.57224 -s 3 -d 2 -p ack -e 40 -c 0 -i 38 -a 0 -x {5.0 0.0 0 ------- null}
h -t 0.57224 -s 3 -d 2 -p ack -e 40 -c 0 -i 38 -a 0 -x {5.0 0.0 -1 ------- null}
r -t 0.58256 -s 3 -d 2 -p ack -e 40 -c 0 -i 38 -a 0 -x {5.0 0.0 0 ------- null}
+ -t 0.58256 -s 2 -d 1 -p ack -e 40 -c 0 -i 38 -a 0 -x {5.0 0.0 0 ------- null}
- -t 0.58256 -s 2 -d 1 -p ack -e 40 -c 0 -i 38 -a 0 -x {5.0 0.0 0 ------- null}
h -t 0.58256 -s 2 -d 1 -p ack -e 40 -c 0 -i 38 -a 0 -x {5.0 0.0 -1 ------- null}
r -t 0.59288 -s 2 -d 1 -p ack -e 40 -c 0 -i 38 -a 0 -x {5.0 0.0 0 ------- null}
+ -t 0.59288 -s 1 -d 0 -p ack -e 40 -c 0 -i 38 -a 0 -x {5.0 0.0 0 ------- null}
- -t 0.59288 -s 1 -d 0 -p ack -e 40 -c 0 -i 38 -a 0 -x {5.0 0.0 0 ------- null}
h -t 0.59288 -s 1 -d 0 -p ack -e 40 -c 0 -i 38 -a 0 -x {5.0 0.0 -1 ------- null}
r -t 0.6032 -s 1 -d 0 -p ack -e 40 -c 0 -i 38 -a 0 -x {5.0 0.0 0 ------- null}
+ -t 0.6032 -s 0 -d 1 -p tcp -e 1040 -c 0 -i 39 -a 0 -x {0.0 5.0 1 ------- null}
- -t 0.6032 -s 0 -d 1 -p tcp -e 1040 -c 0 -i 39 -a 0 -x {0.0 5.0 1 ------- null}
h -t 0.6032 -s 0 -d 1 -p tcp -e 1040 -c 0 -i 39 -a 0 -x {0.0 5.0 -1 ------- null}
+ -t 0.6032 -s 0 -d 1 -p tcp -e 1040 -c 0 -i 40 -a 0 -x {0.0 5.0 2 ------- null}
- -t 0.61152 -s 0 -d 1 -p tcp -e 1040 -c 0 -i 40 -a 0 -x {0.0 5.0 2 ------- null}
h -t 0.61152 -s 0 -d 1 -p tcp -e 1040 -c 0 -i 40 -a 0 -x {0.0 5.0 -1 ------- null}
r -t 0.62152 -s 0 -d 1 -p tcp -e 1040 -c 0 -i 39 -a 0 -x {0.0 5.0 1 ------- null}
+ -t 0.62152 -s 1 -d 2 -p tcp -e 1040 -c 0 -i 39 -a 0 -x {0.0 5.0 1 ------- null}
- -t 0.62152 -s 1 -d 2 -p tcp -e 1040 -c 0 -i 39 -a 0 -x {0.0 5.0 1 ------- null}
h -t 0.62152 -s 1 -d 2 -p tcp -e 1040 -c 0 -i 39 -a 0 -x {0.0 5.0 -1 ------- null}
r -t 0.62984 -s 0 -d 1 -p tcp -e 1040 -c 0 -i 40 -a 0 -x {0.0 5.0 2 ------- null}
+ -t 0.62984 -s 1 -d 2 -p tcp -e 1040 -c 0 -i 40 -a 0 -x {0.0 5.0 2 ------- null}
- -t 0.62984 -s 1 -d 2 -p tcp -e 1040 -c 0 -i 40 -a 0 -x {0.0 5.0 2 ------- null}
h -t 0.62984 -s 1 -d 2 -p tcp -e 1040 -c 0 -i 40 -a 0 -x {0.0 5.0 -1 ------- null}
r -t 0.63984 -s 1 -d 2 -p tcp -e 1040 -c 0 -i 39 -a 0 -x {0.0 5.0 1 ------- null}
+ -t 0.63984 -s 2 -d 3 -p tcp -e 1040 -c 0 -i 39 -a 0 -x {0.0 5.0 1 ------- null}
- -t 0.63984 -s 2 -d 3 -p tcp -e 1040 -c 0 -i 39 -a 0 -x {0.0 5.0 1 ------- null}
h -t 0.63984 -s 2 -d 3 -p tcp -e 1040 -c 0 -i 39 -a 0 -x {0.0 5.0 -1 ------- null}
r -t 0.64816 -s 1 -d 2 -p tcp -e 1040 -c 0 -i 40 -a 0 -x {0.0 5.0 2 ------- null}
+ -t 0.64816 -s 2 -d 3 -p tcp -e 1040 -c 0 -i 40 -a 0 -x {0.0 5.0 2 ------- null}
- -t 0.64816 -s 2 -d 3 -p tcp -e 1040 -c 0 -i 40 -a 0 -x {0.0 5.0 2 ------- null}
h -t 0.64816 -s 2 -d 3 -p tcp -e 1040 -c 0 -i 40 -a 0 -x {0.0 5.0 -1 ------- null}
r -t 0.65816 -s 2 -d 3 -p tcp -e 1040 -c 0 -i 39 -a 0 -x {0.0 5.0 1 ------- null}
+ -t 0.65816 -s 3 -d 4 -p tcp -e 1040 -c 0 -i 39 -a 0 -x {0.0 5.0 1 ------- null}
- -t 0.65816 -s 3 -d 4 -p tcp -e 1040 -c 0 -i 39 -a 0 -x {0.0 5.0 1 ------- null}
h -t 0.65816 -s 3 -d 4 -p tcp -e 1040 -c 0 -i 39 -a 0 -x {0.0 5.0 -1 ------- null}
r -t 0.66648 -s 2 -d 3 -p tcp -e 1040 -c 0 -i 40 -a 0 -x {0.0 5.0 2 ------- null}
+ -t 0.66648 -s 3 -d 4 -p tcp -e 1040 -c 0 -i 40 -a 0 -x {0.0 5.0 2 ------- null}
- -t 0.66648 -s 3 -d 4 -p tcp -e 1040 -c 0 -i 40 -a 0 -x {0.0 5.0 2 ------- null}
h -t 0.66648 -s 3 -d 4 -p tcp -e 1040 -c 0 -i 40 -a 0 -x {0.0 5.0 -1 ------- null}
r -t 0.67648 -s 3 -d 4 -p tcp -e 1040 -c 0 -i 39 -a 0 -x {0.0 5.0 1 ------- null}
+ -t 0.67648 -s 4 -d 5 -p tcp -e 1040 -c 0 -i 39 -a 0 -x {0.0 5.0 1 ------- null}
- -t 0.67648 -s 4 -d 5 -p tcp -e 1040 -c 0 -i 39 -a 0 -x {0.0 5.0 1 ------- null}
h -t 0.67648 -s 4 -d 5 -p tcp -e 1040 -c 0 -i 39 -a 0 -x {0.0 5.0 -1 ------- null}
r -t 0.6848 -s 3 -d 4 -p tcp -e 1040 -c 0 -i 40 -a 0 -x {0.0 5.0 2 ------- null}
+ -t 0.6848 -s 4 -d 5 -p tcp -e 1040 -c 0 -i 40 -a 0 -x {0.0 5.0 2 ------- null}
- -t 0.6848 -s 4 -d 5 -p tcp -e 1040 -c 0 -i 40 -a 0 -x {0.0 5.0 2 ------- null}
h -t 0.6848 -s 4 -d 5 -p tcp -e 1040 -c 0 -i 40 -a 0 -x {0.0 5.0 -1 ------- null}
r -t 0.6948 -s 4 -d 5 -p tcp -e 1040 -c 0 -i 39 -a 0 -x {0.0 5.0 1 ------- null}
+ -t 0.6948 -s 5 -d 4 -p ack -e 40 -c 0 -i 41 -a 0 -x {5.0 0.0 1 ------- null}
- -t 0.6948 -s 5 -d 4 -p ack -e 40 -c 0 -i 41 -a 0 -x {5.0 0.0 1 ------- null}
h -t 0.6948 -s 5 -d 4 -p ack -e 40 -c 0 -i 41 -a 0 -x {5.0 0.0 -1 ------- null}
r -t 0.70312 -s 4 -d 5 -p tcp -e 1040 -c 0 -i 40 -a 0 -x {0.0 5.0 2 ------- null}
+ -t 0.70312 -s 5 -d 4 -p ack -e 40 -c 0 -i 42 -a 0 -x {5.0 0.0 2 ------- null}
- -t 0.70312 -s 5 -d 4 -p ack -e 40 -c 0 -i 42 -a 0 -x {5.0 0.0 2 ------- null}
h -t 0.70312 -s 5 -d 4 -p ack -e 40 -c 0 -i 42 -a 0 -x {5.0 0.0 -1 ------- null}
r -t 0.70512 -s 5 -d 4 -p ack -e 40 -c 0 -i 41 -a 0 -x {5.0 0.0 1 ------- null}
+ -t 0.70512 -s 4 -d 3 -p ack -e 40 -c 0 -i 41 -a 0 -x {5.0 0.0 1 ------- null}
- -t 0.70512 -s 4 -d 3 -p ack -e 40 -c 0 -i 41 -a 0 -x {5.0 0.0 1 ------- null}
h -t 0.70512 -s 4 -d 3 -p ack -e 40 -c 0 -i 41 -a 0 -x {5.0 0.0 -1 ------- null}
r -t 0.71344 -s 5 -d 4 -p ack -e 40 -c 0 -i 42 -a 0 -x {5.0 0.0 2 ------- null}
+ -t 0.71344 -s 4 -d 3 -p ack -e 40 -c 0 -i 42 -a 0 -x {5.0 0.0 2 ------- null}
- -t 0.71344 -s 4 -d 3 -p ack -e 40 -c 0 -i 42 -a 0 -x {5.0 0.0 2 ------- null}
h -t 0.71344 -s 4 -d 3 -p ack -e 40 -c 0 -i 42 -a 0 -x {5.0 0.0 -1 ------- null}
r -t 0.71544 -s 4 -d 3 -p ack -e 40 -c 0 -i 41 -a 0 -x {5.0 0.0 1 ------- null}
+ -t 0.71544 -s 3 -d 2 -p ack -e 40 -c 0 -i 41 -a 0 -x {5.0 0.0 1 ------- null}
- -t 0.71544 -s 3 -d 2 -p ack -e 40 -c 0 -i 41 -a 0 -x {5.0 0.0 1 ------- null}
h -t 0.71544 -s 3 -d 2 -p ack -e 40 -c 0 -i 41 -a 0 -x {5.0 0.0 -1 ------- null}
r -t 0.72376 -s 4 -d 3 -p ack -e 40 -c 0 -i 42 -a 0 -x {5.0 0.0 2 ------- null}
+ -t 0.72376 -s 3 -d 2 -p ack -e 40 -c 0 -i 42 -a 0 -x {5.0 0.0 2 ------- null}
- -t 0.72376 -s 3 -d 2 -p ack -e 40 -c 0 -i 42 -a 0 -x {5.0 0.0 2 ------- null}
h -t 0.72376 -s 3 -d 2 -p ack -e 40 -c 0 -i 42 -a 0 -x {5.0 0.0 -1 ------- null}
r -t 0.72576 -s 3 -d 2 -p ack -e 40 -c 0 -i 41 -a 0 -x {5.0 0.0 1 ------- null}
+ -t 0.72576 -s 2 -d 1 -p ack -e 40 -c 0 -i 41 -a 0 -x {5.0 0.0 1 ------- null}
- -t 0.72576 -s 2 -d 1 -p ack -e 40 -c 0 -i 41 -a 0 -x {5.0 0.0 1 ------- null}
h -t 0.72576 -s 2 -d 1 -p ack -e 40 -c 0 -i 41 -a 0 -x {5.0 0.0 -1 ------- null}
r -t 0.73408 -s 3 -d 2 -p ack -e 40 -c 0 -i 42 -a 0 -x {5.0 0.0 2 ------- null}
+ -t 0.73408 -s 2 -d 1 -p ack -e 40 -c 0 -i 42 -a 0 -x {5.0 0.0 2 ------- null}
- -t 0.73408 -s 2 -d 1 -p ack -e 40 -c 0 -i 42 -a 0 -x {5.0 0.0 2 ------- null}
h -t 0.73408 -s 2 -d 1 -p ack -e 40 -c 0 -i 42 -a 0 -x {5.0 0.0 -1 ------- null}
r -t 0.73608 -s 2 -d 1 -p ack -e 40 -c 0 -i 41 -a 0 -x {5.0 0.0 1 ------- null}
+ -t 0.73608 -s 1 -d 0 -p ack -e 40 -c 0 -i 41 -a 0 -x {5.0 0.0 1 ------- null}
- -t 0.73608 -s 1 -d 0 -p ack -e 40 -c 0 -i 41 -a 0 -x {5.0 0.0 1 ------- null}
h -t 0.73608 -s 1 -d 0 -p ack -e 40 -c 0 -i 41 -a 0 -x {5.0 0.0 -1 ------- null}
r -t 0.7444 -s 2 -d 1 -p ack -e 40 -c 0 -i 42 -a 0 -x {5.0 0.0 2 ------- null}
+ -t 0.7444 -s 1 -d 0 -p ack -e 40 -c 0 -i 42 -a 0 -x {5.0 0.0 2 ------- null}
- -t 0.7444 -s 1 -d 0 -p ack -e 40 -c 0 -i 42 -a 0 -x {5.0 0.0 2 ------- null}
h -t 0.7444 -s 1 -d 0 -p ack -e 40 -c 0 -i 42 -a 0 -x {5.0 0.0 -1 ------- null}
r -t 0.7464 -s 1 -d 0 -p ack -e 40 -c 0 -i 41 -a 0 -x {5.0 0.0 1 ------- null}
+ -t 0.7464 -s 0 -d 1 -p tcp -e 1040 -c 0 -i 43 -a 0 -x {0.0 5.0 3 ------- null}
- -t 0.7464 -s 0 -d 1 -p tcp -e 1040 -c 0 -i 43 -a 0 -x {0.0 5.0 3 ------- null}
h -t 0.7464 -s 0 -d 1 -p tcp -e 1040 -c 0 -i 43 -a 0 -x {0.0 5.0 -1 ------- null}
+ -t 0.7464 -s 0 -d 1 -p tcp -e 1040 -c 0 -i 44 -a 0 -x {0.0 5.0 4 ------- null}
r -t 0.75472 -s 1 -d 0 -p ack -e 40 -c 0 -i 42 -a 0 -x {5.0 0.0 2 ------- null}
+ -t 0.75472 -s 0 -d 1 -p tcp -e 1040 -c 0 -i 45 -a 0 -x {0.0 5.0 5 ------- null}
+ -t 0.75472 -s 0 -d 1 -p tcp -e 1040 -c 0 -i 46 -a 0 -x {0.0 5.0 6 ------- null}
- -t 0.75472 -s 0 -d 1 -p tcp -e 1040 -c 0 -i 44 -a 0 -x {0.0 5.0 4 ------- null}
h -t 0.75472 -s 0 -d 1 -p tcp -e 1040 -c 0 -i 44 -a 0 -x {0.0 5.0 -1 ------- null}
- -t 0.76304 -s 0 -d 1 -p tcp -e 1040 -c 0 -i 45 -a 0 -x {0.0 5.0 5 ------- null}
h -t 0.76304 -s 0 -d 1 -p tcp -e 1040 -c 0 -i 45 -a 0 -x {0.0 5.0 -1 ------- null}
r -t 0.76472 -s 0 -d 1 -p tcp -e 1040 -c 0 -i 43 -a 0 -x {0.0 5.0 3 ------- null}
+ -t 0.76472 -s 1 -d 2 -p tcp -e 1040 -c 0 -i 43 -a 0 -x {0.0 5.0 3 ------- null}
- -t 0.76472 -s 1 -d 2 -p tcp -e 1040 -c 0 -i 43 -a 0 -x {0.0 5.0 3 ------- null}
h -t 0.76472 -s 1 -d 2 -p tcp -e 1040 -c 0 -i 43 -a 0 -x {0.0 5.0 -1 ------- null}
- -t 0.77136 -s 0 -d 1 -p tcp -e 1040 -c 0 -i 46 -a 0 -x {0.0 5.0 6 ------- null}
h -t 0.77136 -s 0 -d 1 -p tcp -e 1040 -c 0 -i 46 -a 0 -x {0.0 5.0 -1 ------- null}
r -t 0.77304 -s 0 -d 1 -p tcp -e 1040 -c 0 -i 44 -a 0 -x {0.0 5.0 4 ------- null}
+ -t 0.77304 -s 1 -d 2 -p tcp -e 1040 -c 0 -i 44 -a 0 -x {0.0 5.0 4 ------- null}
- -t 0.77304 -s 1 -d 2 -p tcp -e 1040 -c 0 -i 44 -a 0 -x {0.0 5.0 4 ------- null}
h -t 0.77304 -s 1 -d 2 -p tcp -e 1040 -c 0 -i 44 -a 0 -x {0.0 5.0 -1 ------- null}
r -t 0.78136 -s 0 -d 1 -p tcp -e 1040 -c 0 -i 45 -a 0 -x {0.0 5.0 5 ------- null}
+ -t 0.78136 -s 1 -d 2 -p tcp -e 1040 -c 0 -i 45 -a 0 -x {0.0 5.0 5 ------- null}
- -t 0.78136 -s 1 -d 2 -p tcp -e 1040 -c 0 -i 45 -a 0 -x {0.0 5.0 5 ------- null}
h -t 0.78136 -s 1 -d 2 -p tcp -e 1040 -c 0 -i 45 -a 0 -x {0.0 5.0 -1 ------- null}
r -t 0.78304 -s 1 -d 2 -p tcp -e 1040 -c 0 -i 43 -a 0 -x {0.0 5.0 3 ------- null}
+ -t 0.78304 -s 2 -d 3 -p tcp -e 1040 -c 0 -i 43 -a 0 -x {0.0 5.0 3 ------- null}
- -t 0.78304 -s 2 -d 3 -p tcp -e 1040 -c 0 -i 43 -a 0 -x {0.0 5.0 3 ------- null}
h -t 0.78304 -s 2 -d 3 -p tcp -e 1040 -c 0 -i 43 -a 0 -x {0.0 5.0 -1 ------- null}
r -t 0.78968 -s 0 -d 1 -p tcp -e 1040 -c 0 -i 46 -a 0 -x {0.0 5.0 6 ------- null}
+ -t 0.78968 -s 1 -d 2 -p tcp -e 1040 -c 0 -i 46 -a 0 -x {0.0 5.0 6 ------- null}
- -t 0.78968 -s 1 -d 2 -p tcp -e 1040 -c 0 -i 46 -a 0 -x {0.0 5.0 6 ------- null}
h -t 0.78968 -s 1 -d 2 -p tcp -e 1040 -c 0 -i 46 -a 0 -x {0.0 5.0 -1 ------- null}
r -t 0.79136 -s 1 -d 2 -p tcp -e 1040 -c 0 -i 44 -a 0 -x {0.0 5.0 4 ------- null}
+ -t 0.79136 -s 2 -d 3 -p tcp -e 1040 -c 0 -i 44 -a 0 -x {0.0 5.0 4 ------- null}
- -t 0.79136 -s 2 -d 3 -p tcp -e 1040 -c 0 -i 44 -a 0 -x {0.0 5.0 4 ------- null}
h -t 0.79136 -s 2 -d 3 -p tcp -e 1040 -c 0 -i 44 -a 0 -x {0.0 5.0 -1 ------- null}
r -t 0.79968 -s 1 -d 2 -p tcp -e 1040 -c 0 -i 45 -a 0 -x {0.0 5.0 5 ------- null}
+ -t 0.79968 -s 2 -d 3 -p tcp -e 1040 -c 0 -i 45 -a 0 -x {0.0 5.0 5 ------- null}
- -t 0.79968 -s 2 -d 3 -p tcp -e 1040 -c 0 -i 45 -a 0 -x {0.0 5.0 5 ------- null}
h -t 0.79968 -s 2 -d 3 -p tcp -e 1040 -c 0 -i 45 -a 0 -x {0.0 5.0 -1 ------- null}
r -t 0.80136 -s 2 -d 3 -p tcp -e 1040 -c 0 -i 43 -a 0 -x {0.0 5.0 3 ------- null}
+ -t 0.80136 -s 3 -d 4 -p tcp -e 1040 -c 0 -i 43 -a 0 -x {0.0 5.0 3 ------- null}
- -t 0.80136 -s 3 -d 4 -p tcp -e 1040 -c 0 -i 43 -a 0 -x {0.0 5.0 3 ------- null}
h -t 0.80136 -s 3 -d 4 -p tcp -e 1040 -c 0 -i 43 -a 0 -x {0.0 5.0 -1 ------- null}
r -t 0.808 -s 1 -d 2 -p tcp -e 1040 -c 0 -i 46 -a 0 -x {0.0 5.0 6 ------- null}
+ -t 0.808 -s 2 -d 3 -p tcp -e 1040 -c 0 -i 46 -a 0 -x {0.0 5.0 6 ------- null}
- -t 0.808 -s 2 -d 3 -p tcp -e 1040 -c 0 -i 46 -a 0 -x {0.0 5.0 6 ------- null}
h -t 0.808 -s 2 -d 3 -p tcp -e 1040 -c 0 -i 46 -a 0 -x {0.0 5.0 -1 ------- null}
r -t 0.80968 -s 2 -d 3 -p tcp -e 1040 -c 0 -i 44 -a 0 -x {0.0 5.0 4 ------- null}
+ -t 0.80968 -s 3 -d 4 -p tcp -e 1040 -c 0 -i 44 -a 0 -x {0.0 5.0 4 ------- null}
- -t 0.80968 -s 3 -d 4 -p tcp -e 1040 -c 0 -i 44 -a 0 -x {0.0 5.0 4 ------- null}
h -t 0.80968 -s 3 -d 4 -p tcp -e 1040 -c 0 -i 44 -a 0 -x {0.0 5.0 -1 ------- null}
r -t 0.818 -s 2 -d 3 -p tcp -e 1040 -c 0 -i 45 -a 0 -x {0.0 5.0 5 ------- null}
+ -t 0.818 -s 3 -d 4 -p tcp -e 1040 -c 0 -i 45 -a 0 -x {0.0 5.0 5 ------- null}
- -t 0.818 -s 3 -d 4 -p tcp -e 1040 -c 0 -i 45 -a 0 -x {0.0 5.0 5 ------- null}
h -t 0.818 -s 3 -d 4 -p tcp -e 1040 -c 0 -i 45 -a 0 -x {0.0 5.0 -1 ------- null}
r -t 0.81968 -s 3 -d 4 -p tcp -e 1040 -c 0 -i 43 -a 0 -x {0.0 5.0 3 ------- null}
+ -t 0.81968 -s 4 -d 5 -p tcp -e 1040 -c 0 -i 43 -a 0 -x {0.0 5.0 3 ------- null}
- -t 0.81968 -s 4 -d 5 -p tcp -e 1040 -c 0 -i 43 -a 0 -x {0.0 5.0 3 ------- null}
h -t 0.81968 -s 4 -d 5 -p tcp -e 1040 -c 0 -i 43 -a 0 -x {0.0 5.0 -1 ------- null}
r -t 0.82632 -s 2 -d 3 -p tcp -e 1040 -c 0 -i 46 -a 0 -x {0.0 5.0 6 ------- null}
+ -t 0.82632 -s 3 -d 4 -p tcp -e 1040 -c 0 -i 46 -a 0 -x {0.0 5.0 6 ------- null}
- -t 0.82632 -s 3 -d 4 -p tcp -e 1040 -c 0 -i 46 -a 0 -x {0.0 5.0 6 ------- null}
h -t 0.82632 -s 3 -d 4 -p tcp -e 1040 -c 0 -i 46 -a 0 -x {0.0 5.0 -1 ------- null}
r -t 0.828 -s 3 -d 4 -p tcp -e 1040 -c 0 -i 44 -a 0 -x {0.0 5.0 4 ------- null}