V -t * -v 1.0a5 -a 0
W -t * -x 500 -y 500
A -t * -n 1 -p 0 -o 0x7fffffff -c 30 -a 1
A -t * -h 1 -m 1073741823 -s 0
+ -t 0.008843915 -s 0 -d -1 -p message -e 32 -c 2 -a 0 -i 0 -k RTR 
- -t 0.008843915 -s 0 -d -1 -p message -e 32 -c 2 -a 0 -i 0 -k RTR
h -t 0.008843915 -s 0 -d -1 -p message -e 32 -c 2 -a 0 -i 0 -k RTR
r -t 0.010023933 -s 6 -d -1 -p message -e 32 -c 2 -a 0 -i 0 -k RTR
r -t 0.010023933 -s 5 -d -1 -p message -e 32 -c 2 -a 0 -i 0 -k RTR
r -t 0.010023933 -s 4 -d -1 -p message -e 32 -c 2 -a 0 -i 0 -k RTR
r -t 0.010023933 -s 3 -d -1 -p message -e 32 -c 2 -a 0 -i 0 -k RTR
+ -t 0.036772557 -s 2 -d -1 -p message -e 32 -c 2 -a 0 -i 1 -k RTR 
- -t 0.036772557 -s 2 -d -1 -p message -e 32 -c 2 -a 0 -i 1 -k RTR
h -t 0.036772557 -s 2 -d -1 -p message -e 32 -c 2 -a 0 -i 1 -k RTR
+ -t 0.177383425 -s 3 -d -1 -p message -e 32 -c 2 -a 0 -i 2 -k RTR 
- -t 0.177383425 -s 3 -d -1 -p message -e 32 -c 2 -a 0 -i 2 -k RTR
h -t 0.177383425 -s 3 -d -1 -p message -e 32 -c 2 -a 0 -i 2 -k RTR
r -t 0.178363425 -s 4 -d -1 -p message -e 32 -c 2 -a 0 -i 2 -k RTR
r -t 0.178363425 -s 5 -d -1 -p message -e 32 -c 2 -a 0 -i 2 -k RTR
r -t 0.178363425 -s 6 -d -1 -p message -e 32 -c 2 -a 0 -i 2 -k RTR
r -t 0.178363443 -s 0 -d -1 -p message -e 32 -c 2 -a 0 -i 2 -k RTR
+ -t 0.626864932 -s 6 -d -1 -p message -e 32 -c 2 -a 0 -i 3 -k RTR 
- -t 0.626864932 -s 6 -d -1 -p message -e 32 -c 2 -a 0 -i 3 -k RTR
h -t 0.626864932 -s 6 -d -1 -p message -e 32 -c 2 -a 0 -i 3 -k RTR
r -t 0.627884932 -s 5 -d -1 -p message -e 32 -c 2 -a 0 -i 3 -k RTR
r -t 0.627884932 -s 4 -d -1 -p message -e 32 -c 2 -a 0 -i 3 -k RTR
r -t 0.627884932 -s 3 -d -1 -p message -e 32 -c 2 -a 0 -i 3 -k RTR
r -t 0.627884950 -s 0 -d -1 -p message -e 32 -c 2 -a 0 -i 3 -k RTR
+ -t 0.886433621 -s 4 -d -1 -p message -e 32 -c 2 -a 0 -i 4 -k RTR 
- -t 0.886433621 -s 4 -d -1 -p message -e 32 -c 2 -a 0 -i 4 -k RTR
h -t 0.886433621 -s 4 -d -1 -p message -e 32 -c 2 -a 0 -i 4 -k RTR
r -t 0.887693621 -s 3 -d -1 -p message -e 32 -c 2 -a 0 -i 4 -k RTR
r -t 0.887693621 -s 5 -d -1 -p message -e 32 -c 2 -a 0 -i 4 -k RTR
r -t 0.887693621 -s 6 -d -1 -p message -e 32 -c 2 -a 0 -i 4 -k RTR
r -t 0.887693639 -s 0 -d -1 -p message -e 32 -c 2 -a 0 -i 4 -k RTR
+ -t 1.000000000 -s 0 -d -1 -p cbr -e 512 -c 2 -a 0 -i 5 -k AGT 
- -t 1.000000000 -s 0 -d -1 -p cbr -e 512 -c 2 -a 0 -i 5 -k AGT
h -t 1.000000000 -s 0 -d -1 -p cbr -e 512 -c 2 -a 0 -i 5 -k AGT
+ -t 1.100000000 -s 0 -d -1 -p cbr -e 512 -c 2 -a 0 -i 6 -k AGT 
- -t 1.100000000 -s 0 -d -1 -p cbr -e 512 -c 2 -a 0 -i 6 -k AGT
h -t 1.100000000 -s 0 -d -1 -p cbr -e 512 -c 2 -a 0 -i 6 -k AGT
+ -t 1.120382105 -s 1 -d -1 -p message -e 32 -c 2 -a 0 -i 7 -k RTR 
- -t 1.120382105 -s 1 -d -1 -p message -e 32 -c 2 -a 0 -i 7 -k RTR
h -t 1.120382105 -s 1 -d -1 -p message -e 32 -c 2 -a 0 -i 7 -k RTR
+ -t 1.200000000 -s 0 -d -1 -p cbr -e 512 -c 2 -a 0 -i 8 -k AGT 
- -t 1.200000000 -s 0 -d -1 -p cbr -e 512 -c 2 -a 0 -i 8 -k AGT
h -t 1.200000000 -s 0 -d -1 -p cbr -e 512 -c 2 -a 0 -i 8 -k AGT
+ -t 1.300000000 -s 0 -d -1 -p cbr -e 512 -c 2 -a 0 -i 9 -k AGT 
- -t 1.300000000 -s 0 -d -1 -p cbr -e 512 -c 2 -a 0 -i 9 -k AGT
h -t 1.300000000 -s 0 -d -1 -p cbr -e 512 -c 2 -a 0 -i 9 -k AGT
+ -t 1.400000000 -s 0 -d -1 -p cbr -e 512 -c 2 -a 0 -i 10 -k AGT 
- -t 1.400000000 -s 0 -d -1 -p cbr -e 512 -c 2 -a 0 -i 10 -k AGT
h -t 1.400000000 -s 0 -d -1 -p cbr -e 512 -c 2 -a 0 -i 10 -k AGT
+ -t 1.500000000 -s 0 -d -1 -p cbr -e 512 -c 2 -a 0 -i 11 -k AGT 
- -t 1.500000000 -s 0 -d -1 -p cbr -e 512 -c 2 -a 0 -i 11 -k AGT
h -t 1.500000000 -s 0 -d -1 -p cbr -e 512 -c 2 -a 0 -i 11 -k AGT
d -t 1.500000000 -s 0 -d -1 -p cbr -e 532 -c 2 -a 0 -i 5 -k RTR
+ -t 1.600000000 -s 0 -d -1 -p cbr -e 512 -c 2 -a 0 -i 13 -k AGT 
- -t 1.600000000 -s 0 -d -1 -p cbr -e 512 -c 2 -a 0 -i 13 -k AGT
h -t 1.600000000 -s 0 -d -1 -p cbr -e 512 -c 2 -a 0 -i 13 -k AGT
d -t 1.600000000 -s 0 -d -1 -p cbr -e 532 -c 2 -a 0 -i 6 -k RTR
+ -t 1.606821973 -s 5 -d -1 -p message -e 32 -c 2 -a 0 -i 12 -k RTR 
- -t 1.606821973 -s 5 -d -1 -p message -e 32 -c 2 -a 0 -i 12 -k RTR
h -t 1.606821973 -s 5 -d -1 -p message -e 32 -c 2 -a 0 -i 12 -k RTR
r -t 1.608001973 -s 4 -d -1 -p message -e 32 -c 2 -a 0 -i 12 -k RTR
r -t 1.608001973 -s 3 -d -1 -p message -e 32 -c 2 -a 0 -i 12 -k RTR
r -t 1.608001973 -s 6 -d -1 -p message -e 32 -c 2 -a 0 -i 12 -k RTR
r -t 1.608001990 -s 0 -d -1 -p message -e 32 -c 2 -a 0 -i 12 -k RTR
+ -t 1.700000000 -s 0 -d -1 -p cbr -e 512 -c 2 -a 0 -i 14 -k AGT 
- -t 1.700000000 -s 0 -d -1 -p cbr -e 512 -c 2 -a 0 -i 14 -k AGT
h -t 1.700000000 -s 0 -d -1 -p cbr -e 512 -c 2 -a 0 -i 14 -k AGT
d -t 1.700000000 -s 0 -d -1 -p cbr -e 532 -c 2 -a 0 -i 8 -k RTR
+ -t 1.800000000 -s 0 -d -1 -p cbr -e 512 -c 2 -a 0 -i 15 -k AGT 
- -t 1.800000000 -s 0 -d -1 -p cbr -e 512 -c 2 -a 0 -i 15 -k AGT
h -t 1.800000000 -s 0 -d -1 -p cbr -e 512 -c 2 -a 0 -i 15 -k AGT
d -t 1.800000000 -s 0 -d -1 -p cbr -e 532 -c 2 -a 0 -i 9 -k RTR
+ -t 1.900000000 -s 0 -d -1 -p cbr -e 512 -c 2 -a 0 -i 16 -k AGT 
- -t 1.900000000 -s 0 -d -1 -p cbr -e 512 -c 2 -a 0 -i 16 -k AGT
h -t 1.900000000 -s 0 -d -1 -p cbr -e 512 -c 2 -a 0 -i 16 -k AGT
d -t 1.900000000 -s 0 -d -1 -p cbr -e 532 -c 2 -a 0 -i 10 -k RTR
+ -t 2.000000000 -s 0 -d -1 -p cbr -e 512 -c 2 -a 0 -i 17 -k AGT 
- -t 2.000000000 -s 0 -d -1 -p cbr -e 512 -c 2 -a 0 -i 17 -k AGT
h -t 2.000000000 -s 0 -d -1 -p cbr -e 512 -c 2 -a 0 -i 17 -k AGT
d -t 2.000000000 -s 0 -d -1 -p cbr -e 532 -c 2 -a 0 -i 11 -k RTR
+ -t 2.100000000 -s 0 -d -1 -p cbr -e 512 -c 2 -a 0 -i 18 -k AGT 
- -t 2.100000000 -s 0 -d -1 -p cbr -e 512 -c 2 -a 0 -i 18 -k AGT
h -t 2.100000000 -s 0 -d -1 -p cbr -e 512 -c 2 -a 0 -i 18 -k AGT
d -t 2.100000000 -s 0 -d -1 -p cbr -e 532 -c 2 -a 0 -i 13 -k RTR
+ -t 2.200000000 -s 0 -d -1 -p cbr -e 512 -c 2 -a 0 -i 19 -k AGT 
- -t 2.200000000 -s 0 -d -1 -p cbr -e 512 -c 2 -a 0 -i 19 -k AGT
h -t 2.200000000 -s 0 -d -1 -p cbr -e 512 -c 2 -a 0 -i 19 -k AGT
d -t 2.200000000 -s 0 -d -1 -p cbr -e 532 -c 2 -a 0 -i 14 -k RTR
+ -t 2.300000000 -s 0 -d -1 -p cbr -e 512 -c 2 -a 0 -i 20 -k AGT 
- -t 2.300000000 -s 0 -d -1 -p cbr -e 512 -c 2 -a 0 -i 20 -k AGT
h -t 2.300000000 -s 0 -d -1 -p cbr -e 512 -c 2 -a 0 -i 20 -k AGT
d -t 2.300000000 -s 0 -d -1 -p cbr -e 532 -c 2 -a 0 -i 15 -k RTR
+ -t 2.400000000 -s 0 -d -1 -p cbr -e 512 -c 2 -a 0 -i 21 -k AGT 
- -t 2.400000000 -s 0 -d -1 -p cbr -e 512 -c 2 -a 0 -i 21 -k AGT
h -t 2.400000000 -s 0 -d -1 -p cbr -e 512 -c 2 -a 0 -i 21 -k AGT
d -t 2.400000000 -s 0 -d -1 -p cbr -e 532 -c 2 -a 0 -i 16 -k RTR
+ -t 2.500000000 -s 0 -d -1 -p cbr -e 512 -c 2 -a 0 -i 22 -k AGT 
- -t 2.500000000 -s 0 -d -1 -p cbr -e 512 -c 2 -a 0 -i 22 -k AGT
h -t 2.500000000 -s 0 -d -1 -p cbr -e 512 -c 2 -a 0 -i 22 -k AGT
d -t 2.500000000 -s 0 -d -1 -p cbr -e 532 -c 2 -a 0 -i 17 -k RTR
+ -t 2.600000000 -s 0 -d -1 -p cbr -e 512 -c 2 -a 0 -i 23 -k AGT 
- -t 2.600000000 -s 0 -d -1 -p cbr -e 512 -c 2 -a 0 -i 23 -k AGT
h -t 2.600000000 -s 0 -d -1 -p cbr -e 512 -c 2 -a 0 -i 23 -k AGT
d -t 2.600000000 -s 0 -d -1 -p cbr -e 532 -c 2 -a 0 -i 18 -k RTR
+ -t 2.700000000 -s 0 -d -1 -p cbr -e 512 -c 2 -a 0 -i 24 -k AGT 
- -t 2.700000000 -s 0 -d -1 -p cbr -e 512 -c 2 -a 0 -i 24 -k AGT
h -t 2.700000000 -s 0 -d -1 -p cbr -e 512 -c 2 -a 0 -i 24 -k AGT
d -t 2.700000000 -s 0 -d -1 -p cbr -e 532 -c 2 -a 0 -i 19 -k RTR
+ -t 2.800000000 -s 0 -d -1 -p cbr -e 512 -c 2 -a 0 -i 25 -k AGT 
- -t 2.800000000 -s 0 -d -1 -p cbr -e 512 -c 2 -a 0 -i 25 -k AGT
h -t 2.800000000 -s 0 -d -1 -p cbr -e 512 -c 2 -a 0 -i 25 -k AGT
d -t 2.800000000 -s 0 -d -1 -p cbr -e 532 -c 2 -a 0 -i 20 -k RTR
+ -t 2.900000000 -s 0 -d -1 -p cbr -e 512 -c 2 -a 0 -i 26 -k AGT 
- -t 2.900000000 -s 0 -d -1 -p cbr -e 512 -c 2 -a 0 -i 26 -k AGT
h -t 2.900000000 -s 0 -d -1 -p cbr -e 512 -c 2 -a 0 -i 26 -k AGT
d -t 2.900000000 -s 0 -d -1 -p cbr -e 532 -c 2 -a 0 -i 21 -k RTR
+ -t 3.000000000 -s 0 -d -1 -p cbr -e 512 -c 2 -a 0 -i 27 -k AGT 
- -t 3.000000000 -s 0 -d -1 -p cbr -e 512 -c 2 -a 0 -i 27 -k AGT
h -t 3.000000000 -s 0 -d -1 -p cbr -e 512 -c 2 -a 0 -i 27 -k AGT
d -t 3.000000000 -s 0 -d -1 -p cbr -e 532 -c 2 -a 0 -i 22 -k RTR
+ -t 3.100000000 -s 0 -d -1 -p cbr -e 512 -c 2 -a 0 -i 28 -k AGT 
- -t 3.100000000 -s 0 -d -1 -p cbr -e 512 -c 2 -a 0 -i 28 -k AGT
h -t 3.100000000 -s 0 -d -1 -p cbr -e 512 -c 2 -a 0 -i 28 -k AGT
d -t 3.100000000 -s 0 -d -1 -p cbr -e 532 -c 2 -a 0 -i 23 -k RTR
+ -t 3.200000000 -s 0 -d -1 -p cbr -e 512 -c 2 -a 0 -i 29 -k AGT 
- -t 3.200000000 -s 0 -d -1 -p cbr -e 512 -c 2 -a 0 -i 29 -k AGT
h -t 3.200000000 -s 0 -d -1 -p cbr -e 512 -c 2 -a 0 -i 29 -k AGT
d -t 3.200000000 -s 0 -d -1 -p cbr -e 532 -c 2 -a 0 -i 24 -k RTR
+ -t 3.300000000 -s 0 -d -1 -p cbr -e 512 -c 2 -a 0 -i 30 -k AGT 
- -t 3.300000000 -s 0 -d -1 -p cbr -e 512 -c 2 -a 0 -i 30 -k AGT
h -t 3.300000000 -s 0 -d -1 -p cbr -e 512 -c 2 -a 0 -i 30 -k AGT
d -t 3.300000000 -s 0 -d -1 -p cbr -e 532 -c 2 -a 0 -i 25 -k RTR
+ -t 3.400000000 -s 0 -d -1 -p cbr -e 512 -c 2 -a 0 -i 31 -k AGT 
- -t 3.400000000 -s 0 -d -1 -p cbr -e 512 -c 2 -a 0 -i 31 -k AGT
h -t 3.400000000 -s 0 -d -1 -p cbr -e 512 -c 2 -a 0 -i 31 -k AGT
d -t 3.400000000 -s 0 -d -1 -p cbr -e 532 -c 2 -a 0 -i 26 -k RTR
+ -t 3.500000000 -s 0 -d -1 -p cbr -e 512 -c 2 -a 0 -i 32 -k AGT 
- -t 3.500000000 -s 0 -d -1 -p cbr -e 512 -c 2 -a 0 -i 32 -k AGT
h -t 3.500000000 -s 0 -d -1 -p cbr -e 512 -c 2 -a 0 -i 32 -k AGT
d -t 3.500000000 -s 0 -d -1 -p cbr -e 532 -c 2 -a 0 -i 27 -k RTR
+ -t 3.600000000 -s 0 -d -1 -p cbr -e 512 -c 2 -a 0 -i 33 -k AGT 
- -t 3.600000000 -s 0 -d -1 -p cbr -e 512 -c 2 -a 0 -i 33 -k AGT
h -t 3.600000000 -s 0 -d -1 -p cbr -e 512 -c 2 -a 0 -i 33 -k AGT
d -t 3.600000000 -s 0 -d -1 -p cbr -e 532 -c 2 -a 0 -i 28 -k RTR
+ -t 3.700000000 -s 0 -d -1 -p cbr -e 512 -c 2 -a 0 -i 34 -k AGT 
- -t 3.700000000 -s 0 -d -1 -p cbr -e 512 -c 2 -a 0 -i 34 -k AGT
h -t 3.700000000 -s 0 -d -1 -p cbr -e 512 -c 2 -a 0 -i 34 -k AGT
d -t 3.700000000 -s 0 -d -1 -p cbr -e 532 -c 2 -a 0 -i 29 -k RTR
+ -t 3.800000000 -s 0 -d -1 -p cbr -e 512 -c 2 -a 0 -i 35 -k AGT 
- -t 3.800000000 -s 0 -d -1 -p cbr -e 512 -c 2 -a 0 -i 35 -k AGT
h -t 3.800000000 -s 0 -d -1 -p cbr -e 512 -c 2 -a 0 -i 35 -k AGT
d -t 3.800000000 -s 0 -d -1 -p cbr -e 532 -c 2 -a 0 -i 30 -k RTR
+ -t 3.900000000 -s 0 -d -1 -p cbr -e 512 -c 2 -a 0 -i 36 -k AGT 
- -t 3.900000000 -s 0 -d -1 -p cbr -e 512 -c 2 -a 0 -i 36 -k AGT
h -t 3.900000000 -s 0 -d -1 -p cbr -e 512 -c 2 -a 0 -i 36 -k AGT
d -t 3.900000000 -s 0 -d -1 -p cbr -e 532 -c 2 -a 0 -i 31 -k RTR
+ -t 4.000000000 -s 0 -d -1 -p cbr -e 512 -c 2 -a 0 -i 37 -k AGT 
- -t 4.000000000 -s 0 -d -1 -p cbr -e 512 -c 2 -a 0 -i 37 -k AGT
h -t 4.000000000 -s 0 -d -1 -p cbr -e 512 -c 2 -a 0 -i 37 -k AGT
d -t 4.000000000 -s 0 -d -1 -p cbr -e 532 -c 2 -a 0 -i 32 -k RTR
+ -t 4.100000000 -s 0 -d -1 -p cbr -e 512 -c 2 -a 0 -i 38 -k AGT 
- -t 4.100000000 -s 0 -d -1 -p cbr -e 512 -c 2 -a 0 -i 38 -k AGT
h -t 4.100000000 -s 0 -d -1 -p cbr -e 512 -c 2 -a 0 -i 38 -k AGT
d -t 4.100000000 -s 0 -d -1 -p cbr -e 532 -c 2 -a 0 -i 33 -k RTR
+ -t 4.200000000 -s 0 -d -1 -p cbr -e 512 -c 2 -a 0 -i 39 -k AGT 
- -t 4.200000000 -s 0 -d -1 -p cbr -e 512 -c 2 -a 0 -i 39 -k AGT
h -t 4.200000000 -s 0 -d -1 -p cbr -e 512 -c 2 -a 0 -i 39 -k AGT
d -t 4.200000000 -s 0 -d -1 -p cbr -e 532 -c 2 -a 0 -i 34 -k RTR
+ -t 4.300000000 -s 0 -d -1 -p cbr -e 512 -c 2 -a 0 -i 40 -k AGT 
- -t 4.300000000 -s 0 -d -1 -p cbr -e 512 -c 2 -a 0 -i 40 -k AGT
h -t 4.300000000 -s 0 -d -1 -p cbr -e 512 -c 2 -a 0 -i 40 -k AGT
d -t 4.300000000 -s 0 -d -1 -p cbr -e 532 -c 2 -a 0 -i 35 -k RTR
+ -t 4.400000000 -s 0 -d -1 -p cbr -e 512 -c 2 -a 0 -i 41 -k AGT 
- -t 4.400000000 -s 0 -d -1 -p cbr -e 512 -c 2 -a 0 -i 41 -k AGT
h -t 4.400000000 -s 0 -d -1 -p cbr -e 512 -c 2 -a 0 -i 41 -k AGT
d -t 4.400000000 -s 0 -d -1 -p cbr -e 532 -c 2 -a 0 -i 36 -k RTR
+ -t 4.500000000 -s 0 -d -1 -p cbr -e 512 -c 2 -a 0 -i 42 -k AGT 
- -t 4.500000000 -s 0 -d -1 -p cbr -e 512 -c 2 -a 0 -i 42 -k AGT
h -t 4.500000000 -s 0 -d -1 -p cbr -e 512 -c 2 -a 0 -i 42 -k AGT
d -t 4.500000000 -s 0 -d -1 -p cbr -e 532 -c 2 -a 0 -i 37 -k RTR
+ -t 4.600000000 -s 0 -d -1 -p cbr -e 512 -c 2 -a 0 -i 43 -k AGT 
- -t 4.600000000 -s 0 -d -1 -p cbr -e 512 -c 2 -a 0 -i 43 -k AGT
h -t 4.600000000 -s 0 -d -1 -p cbr -e 512 -c 2 -a 0 -i 43 -k AGT
d -t 4.600000000 -s 0 -d -1 -p cbr -e 532 -c 2 -a 0 -i 38 -k RTR
+ -t 4.700000000 -s 0 -d -1 -p cbr -e 512 -c 2 -a 0 -i 44 -k AGT 
- -t 4.700000000 -s 0 -d -1 -p cbr -e 512 -c 2 -a 0 -i 44 -k AGT
h -t 4.700000000 -s 0 -d -1 -p cbr -e 512 -c 2 -a 0 -i 44 -k AGT
d -t 4.700000000 -s 0 -d -1 -p cbr -e 532 -c 2 -a 0 -i 39 -k RTR
+ -t 4.800000000 -s 0 -d -1 -p cbr -e 512 -c 2 -a 0 -i 45 -k AGT 
- -t 4.800000000 -s 0 -d -1 -p cbr -e 512 -c 2 -a 0 -i 45 -k AGT
h -t 4.800000000 -s 0 -d -1 -p cbr -e 512 -c 2 -a 0 -i 45 -k AGT
d -t 4.800000000 -s 0 -d -1 -p cbr -e 532 -c 2 -a 0 -i 40 -k RTR
+ -t 4.900000000 -s 0 -d -1 -p cbr -e 512 -c 2 -a 0 -i 46 -k AGT 
- -t 4.900000000 -s 0 -d -1 -p cbr -e 512 -c 2 -a 0 -i 46 -k AGT
h -t 4.900000000 -s 0 -d -1 -p cbr -e 512 -c 2 -a 0 -i 46 -k AGT
d -t 4.900000000 -s 0 -d -1 -p cbr -e 532 -c 2 -a 0 -i 41 -k RTR
+ -t 5.000000000 -s 0 -d -1 -p cbr -e 512 -c 2 -a 0 -i 47 -k AGT 
- -t 5.000000000 -s 0 -d -1 -p cbr -e 512 -c 2 -a 0 -i 47 -k AGT
h -t 5.000000000 -s 0 -d -1 -p cbr -e 512 -c 2 -a 0 -i 47 -k AGT
d -t 5.000000000 -s 0 -d -1 -p cbr -e 532 -c 2 -a 0 -i 42 -k RTR
+ -t 5.100000000 -s 0 -d -1 -p cbr -e 512 -c 2 -a 0 -i 48 -k AGT 
- -t 5.100000000 -s 0 -d -1 -p cbr -e 512 -c 2 -a 0 -i 48 -k AGT
h -t 5.100000000 -s 0 -d -1 -p cbr -e 512 -c 2 -a 0 -i 48 -k AGT
d -t 5.100000000 -s 0 -d -1 -p cbr -e 532 -c 2 -a 0 -i 43 -k RTR
+ -t 5.200000000 -s 0 -d -1 -p cbr -e 512 -c 2 -a 0 -i 49 -k AGT 
- -t 5.200000000 -s 0 -d -1 -p cbr -e 512 -c 2 -a 0 -i 49 -k AGT
h -t 5.200000000 -s 0 -d -1 -p cbr -e 512 -c 2 -a 0 -i 49 -k AGT
d -t 5.200000000 -s 0 -d -1 -p cbr -e 532 -c 2 -a 0 -i 44 -k RTR
+ -t 5.300000000 -s 0 -d -1 -p cbr -e 512 -c 2 -a 0 -i 50 -k AGT 
- -t 5.300000000 -s 0 -d -1 -p cbr -e 512 -c 2 -a 0 -i 50 -k AGT
h -t 5.300000000 -s 0 -d -1 -p cbr -e 512 -c 2 -a 0 -i 50 -k AGT
d -t 5.300000000 -s 0 -d -1 -p cbr -e 532 -c 2 -a 0 -i 45 -k RTR
+ -t 5.400000000 -s 0 -d -1 -p cbr -e 512 -c 2 -a 0 -i 51 -k AGT 
- -t 5.400000000 -s 0 -d -1 -p cbr -e 512 -c 2 -a 0 -i 51 -k AGT
h -t 5.400000000 -s 0 -d -1 -p cbr -e 512 -c 2 -a 0 -i 51 -k AGT
d -t 5.400000000 -s 0 -d -1 -p cbr -e 532 -c 2 -a 0 -i 46 -k RTR
+ -t 5.500000000 -s 0 -d -1 -p cbr -e 512 -c 2 -a 0 -i 52 -k AGT 
- -t 5.500000000 -s 0 -d -1 -p cbr -e 512 -c 2 -a 0 -i 52 -k AGT
h -t 5.500000000 -s 0 -d -1 -p cbr -e 512 -c 2 -a 0 -i 52 -k AGT
d -t 5.500000000 -s 0 -d -1 -p cbr -e 532 -c 2 -a 0 -i 47 -k RTR
+ -t 5.600000000 -s 0 -d -1 -p cbr -e 512 -c 2 -a 0 -i 53 -k AGT 
- -t 5.600000000 -s 0 -d -1 -p cbr -e 512 -c 2 -a 0 -i 53 -k AGT
h -t 5.600000000 -s 0 -d -1 -p cbr -e 512 -c 2 -a 0 -i 53 -k AGT
d -t 5.600000000 -s 0 -d -1 -p cbr -e 532 -c 2 -a 0 -i 48 -k RTR
+ -t 5.700000000 -s 0 -d -1 -p cbr -e 512 -c 2 -a 0 -i 54 -k AGT 
- -t 5.700000000 -s 0 -d -1 -p cbr -e 512 -c 2 -a 0 -i 54 -k AGT
h -t 5.700000000 -s 0 -d -1 -p cbr -e 512 -c 2 -a 0 -i 54 -k AGT
d -t 5.700000000 -s 0 -d -1 -p cbr -e 532 -c 2 -a 0 -i 49 -k RTR
+ -t 5.800000000 -s 0 -d -1 -p cbr -e 512 -c 2 -a 0 -i 55 -k AGT 
- -t 5.800000000 -s 0 -d -1 -p cbr -e 512 -c 2 -a 0 -i 55 -k AGT
h -t 5.800000000 -s 0 -d -1 -p cbr -e 512 -c 2 -a 0 -i 55 -k AGT
d -t 5.800000000 -s 0 -d -1 -p cbr -e 532 -c 2 -a 0 -i 50 -k RTR
+ -t 5.900000000 -s 0 -d -1 -p cbr -e 512 -c 2 -a 0 -i 56 -k AGT 
- -t 5.900000000 -s 0 -d -1 -p cbr -e 512 -c 2 -a 0 -i 56 -k AGT
h -t 5.900000000 -s 0 -d -1 -p cbr -e 512 -c 2 -a 0 -i 56 -k AGT
d -t 5.900000000 -s 0 -d -1 -p cbr -e 532 -c 2 -a 0 -i 51 -k RTR
+ -t 6.000000000 -s 0 -d -1 -p cbr -e 512 -c 2 -a 0 -i 57 -k AGT 
- -t 6.000000000 -s 0 -d -1 -p cbr -e 512 -c 2 -a 0 -i 57 -k AGT
h -t 6.000000000 -s 0 -d -1 -p cbr -e 512 -c 2 -a 0 -i 57 -k AGT
d -t 6.000000000 -s 0 -d -1 -p cbr -e 532 -c 2 -a 0 -i 52 -k RTR
+ -t 6.100000000 -s 0 -d -1 -p cbr -e 512 -c 2 -a 0 -i 58 -k AGT 
- -t 6.100000000 -s 0 -d -1 -p cbr -e 512 -c 2 -a 0 -i 58 -k AGT
h -t 6.100000000 -s 0 -d -1 -p cbr -e 512 -c 2 -a 0 -i 58 -k AGT
d -t 6.100000000 -s 0 -d -1 -p cbr -e 532 -c 2 -a 0 -i 53 -k RTR
+ -t 6.200000000 -s 0 -d -1 -p cbr -e 512 -c 2 -a 0 -i 59 -k AGT 
- -t 6.200000000 -s 0 -d -1 -p cbr -e 512 -c 2 -a 0 -i 59 -k AGT
h -t 6.200000000 -s 0 -d -1 -p cbr -e 512 -c 2 -a 0 -i 59 -k AGT
d -t 6.200000000 -s 0 -d -1 -p cbr -e 532 -c 2 -a 0 -i 54 -k RTR
+ -t 6.300000000 -s 0 -d -1 -p cbr -e 512 -c 2 -a 0 -i 60 -k AGT 
- -t 6.300000000 -s 0 -d -1 -p cbr -e 512 -c 2 -a 0 -i 60 -k AGT
h -t 6.300000000 -s 0 -d -1 -p cbr -e 512 -c 2 -a 0 -i 60 -k AGT
d -t 6.300000000 -s 0 -d -1 -p cbr -e 532 -c 2 -a 0 -i 55 -k RTR
+ -t 6.400000000 -s 0 -d -1 -p cbr -e 512 -c 2 -a 0 -i 61 -k AGT 
- -t 6.400000000 -s 0 -d -1 -p cbr -e 512 -c 2 -a 0 -i 61 -k AGT
h -t 6.400000000 -s 0 -d -1 -p cbr -e 512 -c 2 -a 0 -i 61 -k AGT
d -t 6.400000000 -s 0 -d -1 -p cbr -e 532 -c 2 -a 0 -i 56 -k RTR
+ -t 6.500000000 -s 0 -d -1 -p cbr -e 512 -c 2 -a 0 -i 62 -k AGT 
- -t 6.500000000 -s 0 -d -1 -p cbr -e 512 -c 2 -a 0 -i 62 -k AGT
h -t 6.500000000 -s 0 -d -1 -p cbr -e 512 -c 2 -a 0 -i 62 -k AGT
d -t 6.500000000 -s 0 -d -1 -p cbr -e 532 -c 2 -a 0 -i 57 -k RTR
+ -t 6.600000000 -s 0 -d -1 -p cbr -e 512 -c 2 -a 0 -i 63 -k AGT 
- -t 6.600000000 -s 0 -d -1 -p cbr -e 512 -c 2 -a 0 -i 63 -k AGT
h -t 6.600000000 -s 0 -d -1 -p cbr -e 512 -c 2 -a 0 -i 63 -k AGT
d -t 6.600000000 -s 0 -d -1 -p cbr -e 532 -c 2 -a 0 -i 58 -k RTR
+ -t 6.700000000 -s 0 -d -1 -p cbr -e 512 -c 2 -a 0 -i 64 -k AGT 
- -t 6.700000000 -s 0 -d -1 -p cbr -e 512 -c 2 -a 0 -i 64 -k AGT
h -t 6.700000000 -s 0 -d -1 -p cbr -e 512 -c 2 -a 0 -i 64 -k AGT
d -t 6.700000000 -s 0 -d -1 -p cbr -e 532 -c 2 -a 0 -i 59 -k RTR
+ -t 6.800000000 -s 0 -d -1 -p cbr -e 512 -c 2 -a 0 -i 65 -k AGT 
- -t 6.800000000 -s 0 -d -1 -p cbr -e 512 -c 2 -a 0 -i 65 -k AGT
h -t 6.800000000 -s 0 -d -1 -p cbr -e 512 -c 2 -a 0 -i 65 -k AGT
d -t 6.800000000 -s 0 -d -1 -p cbr -e 532 -c 2 -a 0 -i 60 -k RTR
+ -t 6.900000000 -s 0 -d -1 -p cbr -e 512 -c 2 -a 0 -i 66 -k AGT 
- -t 6.900000000 -s 0 -d -1 -p cbr -e 512 -c 2 -a 0 -i 66 -k AGT
h -t 6.900000000 -s 0 -d -1 -p cbr -e 512 -c 2 -a 0 -i 66 -k AGT
d -t 6.900000000 -s 0 -d -1 -p cbr -e 532 -c 2 -a 0 -i 61 -k RTR
+ -t 7.000000000 -s 0 -d -1 -p cbr -e 512 -c 2 -a 0 -i 67 -k AGT 
- -t 7.000000000 -s 0 -d -1 -p cbr -e 512 -c 2 -a 0 -i 67 -k AGT
h -t 7.000000000 -s 0 -d -1 -p cbr -e 512 -c 2 -a 0 -i 67 -k AGT
d -t 7.000000000 -s 0 -d -1 -p cbr -e 532 -c 2 -a 0 -i 62 -k RTR
+ -t 7.100000000 -s 0 -d -1 -p cbr -e 512 -c 2 -a 0 -i 68 -k AGT 
- -t 7.100000000 -s 0 -d -1 -p cbr -e 512 -c 2 -a 0 -i 68 -k AGT
h -t 7.100000000 -s 0 -d -1 -p cbr -e 512 -c 2 -a 0 -i 68 -k AGT
d -t 7.100000000 -s 0 -d -1 -p cbr -e 532 -c 2 -a 0 -i 63 -k RTR
+ -t 7.200000000 -s 0 -d -1 -p cbr -e 512 -c 2 -a 0 -i 69 -k AGT 
- -t 7.200000000 -s 0 -d -1 -p cbr -e 512 -c 2 -a 0 -i 69 -k AGT
h -t 7.200000000 -s 0 -d -1 -p cbr -e 512 -c 2 -a 0 -i 69 -k AGT
d -t 7.200000000 -s 0 -d -1 -p cbr -e 532 -c 2 -a 0 -i 64 -k RTR
+ -t 7.300000000 -s 0 -d -1 -p cbr -e 512 -c 2 -a 0 -i 70 -k AGT 
- -t 7.300000000 -s 0 -d -1 -p cbr -e 512 -c 2 -a 0 -i 70 -k AGT
h -t 7.300000000 -s 0 -d -1 -p cbr -e 512 -c 2 -a 0 -i 70 -k AGT
d -t 7.300000000 -s 0 -d -1 -p cbr -e 532 -c 2 -a 0 -i 65 -k RTR
+ -t 7.400000000 -s 0 -d -1 -p cbr -e 512 -c 2 -a 0 -i 71 -k AGT 
- -t 7.400000000 -s 0 -d -1 -p cbr -e 512 -c 2 -a 0 -i 71 -k AGT
h -t 7.400000000 -s 0 -d -1 -p cbr -e 512 -c 2 -a 0 -i 71 -k AGT
d -t 7.400000000 -s 0 -d -1 -p cbr -e 532 -c 2 -a 0 -i 66 -k RTR
+ -t 7.500000000 -s 0 -d -1 -p cbr -e 512 -c 2 -a 0 -i 72 -k AGT 
- -t 7.500000000 -s 0 -d -1 -p cbr -e 512 -c 2 -a 0 -i 72 -k AGT
h -t 7.500000000 -s 0 -d -1 -p cbr -e 512 -c 2 -a 0 -i 72 -k AGT
d -t 7.500000000 -s 0 -d -1 -p cbr -e 532 -c 2 -a 0 -i 67 -k RTR
+ -t 7.600000000 -s 0 -d -1 -p cbr -e 512 -c 2 -a 0 -i 73 -k AGT 
- -t 7.600000000 -s 0 -d -1 -p cbr -e 512 -c 2 -a 0 -i 73 -k AGT
h -t 7.600000000 -s 0 -d -1 -p cbr -e 512 -c 2 -a 0 -i 73 -k AGT
d -t 7.600000000 -s 0 -d -1 -p cbr -e 532 -c 2 -a 0 -i 68 -k RTR
+ -t 7.700000000 -s 0 -d -1 -p cbr -e 512 -c 2 -a 0 -i 74 -k AGT 
- -t 7.700000000 -s 0 -d -1 -p cbr -e 512 -c 2 -a 0 -i 74 -k AGT
h -t 7.700000000 -s 0 -d -1 -p cbr -e 512 -c 2 -a 0 -i 74 -k AGT
d -t 7.700000000 -s 0 -d -1 -p cbr -e 532 -c 2 -a 0 -i 69 -k RTR
+ -t 7.800000000 -s 0 -d -1 -p cbr -e 512 -c 2 -a 0 -i 75 -k AGT 
- -t 7.800000000 -s 0 -d -1 -p cbr -e 512 -c 2 -a 0 -i 75 -k AGT
h -t 7.800000000 -s 0 -d -1 -p cbr -e 512 -c 2 -a 0 -i 75 -k AGT
d -t 7.800000000 -s 0 -d -1 -p cbr -e 532 -c 2 -a 0 -i 70 -k RTR
+ -t 7.900000000 -s 0 -d -1 -p cbr -e 512 -c 2 -a 0 -i 76 -k AGT 
- -t 7.900000000 -s 0 -d -1 -p cbr -e 512 -c 2 -a 0 -i 76 -k AGT
h -t 7.900000000 -s 0 -d -1 -p cbr -e 512 -c 2 -a 0 -i 76 -k AGT
d -t 7.900000000 -s 0 -d -1 -p cbr -e 532 -c 2 -a 0 -i 71 -k RTR
+ -t 8.000000000 -s 0 -d -1 -p cbr -e 512 -c 2 -a 0 -i 77 -k AGT 
- -t 8.000000000 -s 0 -d -1 -p cbr -e 512 -c 2 -a 0 -i 77 -k AGT
h -t 8.000000000 -s 0 -d -1 -p cbr -e 512 -c 2 -a 0 -i 77 -k AGT
d -t 8.000000000 -s 0 -d -1 -p cbr -e 532 -c 2 -a 0 -i 72 -k RTR
+ -t 8.100000000 -s 0 -d -1 -p cbr -e 512 -c 2 -a 0 -i 78 -k AGT 
- -t 8.100000000 -s 0 -d -1 -p cbr -e 512 -c 2 -a 0 -i 78 -k AGT
h -t 8.100000000 -s 0 -d -1 -p cbr -e 512 -c 2 -a 0 -i 78 -k AGT
d -t 8.100000000 -s 0 -d -1 -p cbr -e 532 -c 2 -a 0 -i 73 -k RTR
+ -t 8.200000000 -s 0 -d -1 -p cbr -e 512 -c 2 -a 0 -i 79 -k AGT 
- -t 8.200000000 -s 0 -d -1 -p cbr -e 512 -c 2 -a 0 -i 79 -k AGT
h -t 8.200000000 -s 0 -d -1 -p cbr -e 512 -c 2 -a 0 -i 79 -k AGT
d -t 8.200000000 -s 0 -d -1 -p cbr -e 532 -c 2 -a 0 -i 74 -k RTR
+ -t 8.300000000 -s 0 -d -1 -p cbr -e 512 -c 2 -a 0 -i 80 -k AGT 
- -t 8.300000000 -s 0 -d -1 -p cbr -e 512 -c 2 -a 0 -i 80 -k AGT
h -t 8.300000000 -s 0 -d -1 -p cbr -e 512 -c 2 -a 0 -i 80 -k AGT
d -t 8.300000000 -s 0 -d -1 -p cbr -e 532 -c 2 -a 0 -i 75 -k RTR
+ -t 8.400000000 -s 0 -d -1 -p cbr -e 512 -c 2 -a 0 -i 81 -k AGT 
- -t 8.400000000 -s 0 -d -1 -p cbr -e 512 -c 2 -a 0 -i 81 -k AGT
h -t 8.400000000 -s 0 -d -1 -p cbr -e 512 -c 2 -a 0 -i 81 -k AGT
d -t 8.400000000 -s 0 -d -1 -p cbr -e 532 -c 2 -a 0 -i 76 -k RTR
+ -t 8.500000000 -s 0 -d -1 -p cbr -e 512 -c 2 -a 0 -i 82 -k AGT 
- -t 8.500000000 -s 0 -d -1 -p cbr -e 512 -c 2 -a 0 -i 82 -k AGT
h -t 8.500000000 -s 0 -d -1 -p cbr -e 512 -c 2 -a 0 -i 82 -k AGT
d -t 8.500000000 -s 0 -d -1 -p cbr -e 532 -c 2 -a 0 -i 77 -k RTR
+ -t 8.600000000 -s 0 -d -1 -p cbr -e 512 -c 2 -a 0 -i 83 -k AGT 
- -t 8.600000000 -s 0 -d -1 -p cbr -e 512 -c 2 -a 0 -i 83 -k AGT
h -t 8.600000000 -s 0 -d -1 -p cbr -e 512 -c 2 -a 0 -i 83 -k AGT
d -t 8.600000000 -s 0 -d -1 -p cbr -e 532 -c 2 -a 0 -i 78 -k RTR
+ -t 8.700000000 -s 0 -d -1 -p cbr -e 512 -c 2 -a 0 -i 84 -k AGT 
- -t 8.700000000 -s 0 -d -1 -p cbr -e 512 -c 2 -a 0 -i 84 -k AGT
h -t 8.700000000 -s 0 -d -1 -p cbr -e 512 -c 2 -a 0 -i 84 -k AGT
d -t 8.700000000 -s 0 -d -1 -p cbr -e 532 -c 2 -a 0 -i 79 -k RTR
+ -t 8.800000000 -s 0 -d -1 -p cbr -e 512 -c 2 -a 0 -i 85 -k AGT 
- -t 8.800000000 -s 0 -d -1 -p cbr -e 512 -c 2 -a 0 -i 85 -k AGT
h -t 8.800000000 -s 0 -d -1 -p cbr -e 512 -c 2 -a 0 -i 85 -k AGT
d -t 8.800000000 -s 0 -d -1 -p cbr -e 532 -c 2 -a 0 -i 80 -k RTR
+ -t 8.900000000 -s 0 -d -1 -p cbr -e 512 -c 2 -a 0 -i 86 -k AGT 
- -t 8.900000000 -s 0 -d -1 -p cbr -e 512 -c 2 -a 0 -i 86 -k AGT
h -t 8.900000000 -s 0 -d -1 -p cbr -e 512 -c 2 -a 0 -i 86 -k AGT
d -t 8.900000000 -s 0 -d -1 -p cbr -e 532 -c 2 -a 0 -i 81 -k RTR
+ -t 9.000000000 -s 0 -d -1 -p cbr -e 512 -c 2 -a 0 -i 87 -k AGT 
- -t 9.000000000 -s 0 -d -1 -p cbr -e 512 -c 2 -a 0 -i 87 -k AGT
h -t 9.000000000 -s 0 -d -1 -p cbr -e 512 -c 2 -a 0 -i 87 -k AGT
d -t 9.000000000 -s 0 -d -1 -p cbr -e 532 -c 2 -a 0 -i 82 -k RTR
+ -t 9.100000000 -s 0 -d -1 -p cbr -e 512 -c 2 -a 0 -i 88 -k AGT 
- -t 9.100000000 -s 0 -d -1 -p cbr -e 512 -c 2 -a 0 -i 88 -k AGT
h -t 9.100000000 -s 0 -d -1 -p cbr -e 512 -c 2 -a 0 -i 88 -k AGT
d -t 9.100000000 -s 0 -d -1 -p cbr -e 532 -c 2 -a 0 -i 83 -k RTR
+ -t 9.200000000 -s 0 -d -1 -p cbr -e 512 -c 2 -a 0 -i 89 -k AGT 
- -t 9.200000000 -s 0 -d -1 -p cbr -e 512 -c 2 -a 0 -i 89 -k AGT
h -t 9.200000000 -s 0 -d -1 -p cbr -e 512 -c 2 -a 0 -i 89 -k AGT
d -t 9.200000000 -s 0 -d -1 -p cbr -e 532 -c 2 -a 0 -i 84 -k RTR
+ -t 9.300000000 -s 0 -d -1 -p cbr -e 512 -c 2 -a 0 -i 90 -k AGT 
- -t 9.300000000 -s 0 -d -1 -p cbr -e 512 -c 2 -a 0 -i 90 -k AGT
h -t 9.300000000 -s 0 -d -1 -p cbr -e 512 -c 2 -a 0 -i 90 -k AGT
d -t 9.300000000 -s 0 -d -1 -p cbr -e 532 -c 2 -a 0 -i 85 -k RTR
+ -t 9.400000000 -s 0 -d -1 -p cbr -e 512 -c 2 -a 0 -i 91 -k AGT 
- -t 9.400000000 -s 0 -d -1 -p cbr -e 512 -c 2 -a 0 -i 91 -k AGT
h -t 9.400000000 -s 0 -d -1 -p cbr -e 512 -c 2 -a 0 -i 91 -k AGT
d -t 9.400000000 -s 0 -d -1 -p cbr -e 532 -c 2 -a 0 -i 86 -k RTR
+ -t 9.500000000 -s 0 -d -1 -p cbr -e 512 -c 2 -a 0 -i 92 -k AGT 
- -t 9.500000000 -s 0 -d -1 -p cbr -e 512 -c 2 -a 0 -i 92 -k AGT
h -t 9.500000000 -s 0 -d -1 -p cbr -e 512 -c 2 -a 0 -i 92 -k AGT
d -t 9.500000000 -s 0 -d -1 -p cbr -e 532 -c 2 -a 0 -i 87 -k RTR
+ -t 9.600000000 -s 0 -d -1 -p cbr -e 512 -c 2 -a 0 -i 93 -k AGT 
- -t 9.600000000 -s 0 -d -1 -p cbr -e 512 -c 2 -a 0 -i 93 -k AGT
h -t 9.600000000 -s 0 -d -1 -p cbr -e 512 -c 2 -a 0 -i 93 -k AGT
d -t 9.600000000 -s 0 -d -1 -p cbr -e 532 -c 2 -a 0 -i 88 -k RTR
+ -t 9.700000000 -s 0 -d -1 -p cbr -e 512 -c 2 -a 0 -i 94 -k AGT 
- -t 9.700000000 -s 0 -d -1 -p cbr -e 512 -c 2 -a 0 -i 94 -k AGT
h -t 9.700000000 -s 0 -d -1 -p cbr -e 512 -c 2 -a 0 -i 94 -k AGT
d -t 9.700000000 -s 0 -d -1 -p cbr -e 532 -c 2 -a 0 -i 89 -k RTR
+ -t 9.800000000 -s 0 -d -1 -p cbr -e 512 -c 2 -a 0 -i 95 -k AGT 
- -t 9.800000000 -s 0 -d -1 -p cbr -e 512 -c 2 -a 0 -i 95 -k AGT
h -t 9.800000000 -s 0 -d -1 -p cbr -e 512 -c 2 -a 0 -i 95 -k AGT
d -t 9.800000000 -s 0 -d -1 -p cbr -e 532 -c 2 -a 0 -i 90 -k RTR
+ -t 9.900000000 -s 0 -d -1 -p cbr -e 512 -c 2 -a 0 -i 96 -k AGT 
- -t 9.900000000 -s 0 -d -1 -p cbr -e 512 -c 2 -a 0 -i 96 -k AGT
h -t 9.900000000 -s 0 -d -1 -p cbr -e 512 -c 2 -a 0 -i 96 -k AGT
d -t 9.900000000 -s 0 -d -1 -p cbr -e 532 -c 2 -a 0 -i 91 -k RTR
+ -t 10.000000000 -s 0 -d -1 -p cbr -e 512 -c 2 -a 0 -i 97 -k AGT 
- -t 10.000000000 -s 0 -d -1 -p cbr -e 512 -c 2 -a 0 -i 97 -k AGT
h -t 10.000000000 -s 0 -d -1 -p cbr -e 512 -c 2 -a 0 -i 97 -k AGT
d -t 10.000000000 -s 0 -d -1 -p cbr -e 532 -c 2 -a 0 -i 92 -k RTR
n -t 10.000000 -s 0 -x 5.000000 -y 2.000000 -U 2.108373 -V 2.134189 -T 116.203366
+ -t 10.100000000 -s 0 -d -1 -p cbr -e 512 -c 2 -a 0 -i 98 -k AGT 
- -t 10.100000000 -s 0 -d -1 -p cbr -e 512 -c 2 -a 0 -i 98 -k AGT
h -t 10.100000000 -s 0 -d -1 -p cbr -e 512 -c 2 -a 0 -i 98 -k AGT
d -t 10.100000000 -s 0 -d -1 -p cbr -e 532 -c 2 -a 0 -i 93 -k RTR
+ -t 10.200000000 -s 0 -d -1 -p cbr -e 512 -c 2 -a 0 -i 99 -k AGT 
- -t 10.200000000 -s 0 -d -1 -p cbr -e 512 -c 2 -a 0 -i 99 -k AGT
h -t 10.200000000 -s 0 -d -1 -p cbr -e 512 -c 2 -a 0 -i 99 -k AGT
d -t 10.200000000 -s 0 -d -1 -p cbr -e 532 -c 2 -a 0 -i 94 -k RTR
+ -t 10.300000000 -s 0 -d -1 -p cbr -e 512 -c 2 -a 0 -i 100 -k AGT 
- -t 10.300000000 -s 0 -d -1 -p cbr -e 512 -c 2 -a 0 -i 100 -k AGT
h -t 10.300000000 -s 0 -d -1 -p cbr -e 512 -c 2 -a 0 -i 100 -k AGT
d -t 10.300000000 -s 0 -d -1 -p cbr -e 532 -c 2 -a 0 -i 95 -k RTR
+ -t 10.400000000 -s 0 -d -1 -p cbr -e 512 -c 2 -a 0 -i 101 -k AGT 
- -t 10.400000000 -s 0 -d -1 -p cbr -e 512 -c 2 -a 0 -i 101 -k AGT
h -t 10.400000000 -s 0 -d -1 -p cbr -e 512 -c 2 -a 0 -i 101 -k AGT
d -t 10.400000000 -s 0 -d -1 -p cbr -e 532 -c 2 -a 0 -i 96 -k RTR
+ -t 10.500000000 -s 0 -d -1 -p cbr -e 512 -c 2 -a 0 -i 102 -k AGT 
- -t 10.500000000 -s 0 -d -1 -p cbr -e 512 -c 2 -a 0 -i 102 -k AGT
h -t 10.500000000 -s 0 -d -1 -p cbr -e 512 -c 2 -a 0 -i 102 -k AGT
d -t 10.500000000 -s 0 -d -1 -p cbr -e 532 -c 2 -a 0 -i 97 -k RTR
+ -t 10.600000000 -s 0 -d -1 -p cbr -e 512 -c 2 -a 0 -i 103 -k AGT 
- -t 10.600000000 -s 0 -d -1 -p cbr -e 512 -c 2 -a 0 -i 103 -k AGT
h -t 10.600000000 -s 0 -d -1 -p cbr -e 512 -c 2 -a 0 -i 103 -k AGT
d -t 10.600000000 -s 0 -d -1 -p cbr -e 532 -c 2 -a 0 -i 98 -k RTR
+ -t 10.700000000 -s 0 -d -1 -p cbr -e 512 -c 2 -a 0 -i 104 -k AGT 
- -t 10.700000000 -s 0 -d -1 -p cbr -e 512 -c 2 -a 0 -i 104 -k AGT
h -t 10.700000000 -s 0 -d -1 -p cbr -e 512 -c 2 -a 0 -i 104 -k AGT
d -t 10.700000000 -s 0 -d -1 -p cbr -e 532 -c 2 -a 0 -i 99 -k RTR
+ -t 10.800000000 -s 0 -d -1 -p cbr -e 512 -c 2 -a 0 -i 105 -k AGT 
- -t 10.800000000 -s 0 -d -1 -p cbr -e 512 -c 2 -a 0 -i 105 -k AGT
h -t 10.800000000 -s 0 -d -1 -p cbr -e 512 -c 2 -a 0 -i 105 -k AGT
d -t 10.800000000 -s 0 -d -1 -p cbr -e 532 -c 2 -a 0 -i 100 -k RTR
+ -t 10.900000000 -s 0 -d -1 -p cbr -e 512 -c 2 -a 0 -i 106 -k AGT 
- -t 10.900000000 -s 0 -d -1 -p cbr -e 512 -c 2 -a 0 -i 106 -k AGT
h -t 10.900000000 -s 0 -d -1 -p cbr -e 512 -c 2 -a 0 -i 106 -k AGT
d -t 10.900000000 -s 0 -d -1 -p cbr -e 532 -c 2 -a 0 -i 101 -k RTR
+ -t 11.000000000 -s 0 -d -1 -p cbr -e 512 -c 2 -a 0 -i 107 -k AGT 
- -t 11.000000000 -s 0 -d -1 -p cbr -e 512 -c 2 -a 0 -i 107 -k AGT
h -t 11.000000000 -s 0 -d -1 -p cbr -e 512 -c 2 -a 0 -i 107 -k AGT
d -t 11.000000000 -s 0 -d -1 -p cbr -e 532 -c 2 -a 0 -i 102 -k RTR
+ -t 11.100000000 -s 0 -d -1 -p cbr -e 512 -c 2 -a 0 -i 108 -k AGT 
- -t 11.100000000 -s 0 -d -1 -p cbr -e 512 -c 2 -a 0 -i 108 -k AGT
h -t 11.100000000 -s 0 -d -1 -p cbr -e 512 -c 2 -a 0 -i 108 -k AGT
d -t 11.100000000 -s 0 -d -1 -p cbr -e 532 -c 2 -a 0 -i 103 -k RTR
+ -t 11.200000000 -s 0 -d -1 -p cbr -e 512 -c 2 -a 0 -i 109 -k AGT 
- -t 11.200000000 -s 0 -d -1 -p cbr -e 512 -c 2 -a 0 -i 109 -k AGT
h -t 11.200000000 -s 0 -d -1 -p cbr -e 512 -c 2 -a 0 -i 109 -k AGT
d -t 11.200000000 -s 0 -d -1 -p cbr -e 532 -c 2 -a 0 -i 104 -k RTR
+ -t 11.300000000 -s 0 -d -1 -p cbr -e 512 -c 2 -a 0 -i 110 -k AGT 
- -t 11.300000000 -s 0 -d -1 -p cbr -e 512 -c 2 -a 0 -i 110 -k AGT
h -t 11.300000000 -s 0 -d -1 -p cbr -e 512 -c 2 -a 0 -i 110 -k AGT
d -t 11.300000000 -s 0 -d -1 -p cbr -e 532 -c 2 -a 0 -i 105 -k RTR
+ -t 11.400000000 -s 0 -d -1 -p cbr -e 512 -c 2 -a 0 -i 111 -k AGT 
- -t 11.400000000 -s 0 -d -1 -p cbr -e 512 -c 2 -a 0 -i 111 -k AGT