V -t * -v 1.0a5 -a 0
W -t * -x 500 -y 500
A -t * -n 1 -p 0 -o 0x7fffffff -c 30 -a 1
A -t * -h 1 -m 1073741823 -s 0
+ -t 0.031538939 -s 1 -d -1 -p message -e 32 -c 2 -a 0 -i 0 -k RTR 
- -t 0.031538939 -s 1 -d -1 -p message -e 32 -c 2 -a 0 -i 0 -k RTR
h -t 0.031538939 -s 1 -d -1 -p message -e 32 -c 2 -a 0 -i 0 -k RTR
r -t 0.032599360 -s 3 -d -1 -p message -e 32 -c 2 -a 0 -i 0 -k RTR
r -t 0.032599420 -s 2 -d -1 -p message -e 32 -c 2 -a 0 -i 0 -k RTR
r -t 0.032599542 -s 4 -d -1 -p message -e 32 -c 2 -a 0 -i 0 -k RTR
r -t 0.032599633 -s 0 -d -1 -p message -e 32 -c 2 -a 0 -i 0 -k RTR
+ -t 0.179336133 -s 2 -d -1 -p message -e 32 -c 2 -a 0 -i 1 -k RTR 
- -t 0.179336133 -s 2 -d -1 -p message -e 32 -c 2 -a 0 -i 1 -k RTR
h -t 0.179336133 -s 2 -d -1 -p message -e 32 -c 2 -a 0 -i 1 -k RTR
r -t 0.180196468 -s 4 -d -1 -p message -e 32 -c 2 -a 0 -i 1 -k RTR
r -t 0.180196527 -s 0 -d -1 -p message -e 32 -c 2 -a 0 -i 1 -k RTR
r -t 0.180196548 -s 3 -d -1 -p message -e 32 -c 2 -a 0 -i 1 -k RTR
r -t 0.180196614 -s 1 -d -1 -p message -e 32 -c 2 -a 0 -i 1 -k RTR
+ -t 0.888747441 -s 3 -d -1 -p message -e 32 -c 2 -a 0 -i 2 -k RTR 
- -t 0.888747441 -s 3 -d -1 -p message -e 32 -c 2 -a 0 -i 2 -k RTR
h -t 0.888747441 -s 3 -d -1 -p message -e 32 -c 2 -a 0 -i 2 -k RTR
r -t 0.889807777 -s 0 -d -1 -p message -e 32 -c 2 -a 0 -i 2 -k RTR
r -t 0.889807856 -s 2 -d -1 -p message -e 32 -c 2 -a 0 -i 2 -k RTR
r -t 0.889807862 -s 1 -d -1 -p message -e 32 -c 2 -a 0 -i 2 -k RTR
r -t 0.889808164 -s 4 -d -1 -p message -e 32 -c 2 -a 0 -i 2 -k RTR
+ -t 1.113509485 -s 0 -d -1 -p message -e 32 -c 2 -a 0 -i 3 -k RTR 
- -t 1.113509485 -s 0 -d -1 -p message -e 32 -c 2 -a 0 -i 3 -k RTR
h -t 1.113509485 -s 0 -d -1 -p message -e 32 -c 2 -a 0 -i 3 -k RTR
r -t 1.114649821 -s 3 -d -1 -p message -e 32 -c 2 -a 0 -i 3 -k RTR
r -t 1.114649879 -s 2 -d -1 -p message -e 32 -c 2 -a 0 -i 3 -k RTR
r -t 1.114650178 -s 1 -d -1 -p message -e 32 -c 2 -a 0 -i 3 -k RTR
r -t 1.114650205 -s 4 -d -1 -p message -e 32 -c 2 -a 0 -i 3 -k RTR
+ -t 1.600891786 -s 4 -d -1 -p message -e 32 -c 2 -a 0 -i 4 -k RTR 
- -t 1.600891786 -s 4 -d -1 -p message -e 32 -c 2 -a 0 -i 4 -k RTR
h -t 1.600891786 -s 4 -d -1 -p message -e 32 -c 2 -a 0 -i 4 -k RTR
r -t 1.601952121 -s 2 -d -1 -p message -e 32 -c 2 -a 0 -i 4 -k RTR
r -t 1.601952389 -s 1 -d -1 -p message -e 32 -c 2 -a 0 -i 4 -k RTR
r -t 1.601952507 -s 0 -d -1 -p message -e 32 -c 2 -a 0 -i 4 -k RTR
r -t 1.601952510 -s 3 -d -1 -p message -e 32 -c 2 -a 0 -i 4 -k RTR
n -t 5.000000 -s 0 -x 192.000000 -y 265.000000 -U 4.247331 -V -6.779394 -T 24.485965
n -t 10.000000 -s 1 -x 238.000000 -y 62.000000 -U -10.877593 -V -1.636452 -T 20.776656
+ -t 10.000000000 -s 0 -d -1 -p tcp -e 40 -c 2 -a 0 -i 5 -k AGT 
- -t 10.000000000 -s 0 -d -1 -p tcp -e 40 -c 2 -a 0 -i 5 -k AGT
h -t 10.000000000 -s 0 -d -1 -p tcp -e 40 -c 2 -a 0 -i 5 -k AGT
+ -t 10.000000000 -s 0 -d 1 -p tcp -e 60 -c 2 -a 0 -i 5 -k RTR 
- -t 10.000000000 -s 0 -d 1 -p tcp -e 60 -c 2 -a 0 -i 5 -k RTR
h -t 10.000000000 -s 0 -d 1 -p tcp -e 60 -c 2 -a 0 -i 5 -k RTR
r -t 10.004934987 -s 1 -d 1 -p tcp -e 60 -c 2 -a 0 -i 5 -k AGT
+ -t 10.004934987 -s 1 -d -1 -p ack -e 40 -c 2 -a 0 -i 6 -k AGT 
- -t 10.004934987 -s 1 -d -1 -p ack -e 40 -c 2 -a 0 -i 6 -k AGT
h -t 10.004934987 -s 1 -d -1 -p ack -e 40 -c 2 -a 0 -i 6 -k AGT
+ -t 10.004934987 -s 1 -d 0 -p ack -e 60 -c 2 -a 0 -i 6 -k RTR 
- -t 10.004934987 -s 1 -d 0 -p ack -e 60 -c 2 -a 0 -i 6 -k RTR
h -t 10.004934987 -s 1 -d 0 -p ack -e 60 -c 2 -a 0 -i 6 -k RTR
r -t 10.007300696 -s 0 -d 0 -p ack -e 60 -c 2 -a 0 -i 6 -k AGT
+ -t 10.007300696 -s 0 -d -1 -p tcp -e 1040 -c 2 -a 0 -i 7 -k AGT 
- -t 10.007300696 -s 0 -d -1 -p tcp -e 1040 -c 2 -a 0 -i 7 -k AGT
h -t 10.007300696 -s 0 -d -1 -p tcp -e 1040 -c 2 -a 0 -i 7 -k AGT
+ -t 10.007300696 -s 0 -d 1 -p tcp -e 1060 -c 2 -a 0 -i 7 -k RTR 
- -t 10.007300696 -s 0 -d 1 -p tcp -e 1060 -c 2 -a 0 -i 7 -k RTR
h -t 10.007300696 -s 0 -d 1 -p tcp -e 1060 -c 2 -a 0 -i 7 -k RTR
+ -t 10.007300696 -s 0 -d -1 -p tcp -e 1040 -c 2 -a 0 -i 8 -k AGT 
- -t 10.007300696 -s 0 -d -1 -p tcp -e 1040 -c 2 -a 0 -i 8 -k AGT
h -t 10.007300696 -s 0 -d -1 -p tcp -e 1040 -c 2 -a 0 -i 8 -k AGT
+ -t 10.007300696 -s 0 -d 1 -p tcp -e 1060 -c 2 -a 0 -i 8 -k RTR 
- -t 10.007300696 -s 0 -d 1 -p tcp -e 1060 -c 2 -a 0 -i 8 -k RTR
h -t 10.007300696 -s 0 -d 1 -p tcp -e 1060 -c 2 -a 0 -i 8 -k RTR
r -t 10.017326405 -s 1 -d 1 -p tcp -e 1060 -c 2 -a 0 -i 7 -k AGT
+ -t 10.017326405 -s 1 -d -1 -p ack -e 40 -c 2 -a 0 -i 9 -k AGT 
- -t 10.017326405 -s 1 -d -1 -p ack -e 40 -c 2 -a 0 -i 9 -k AGT
h -t 10.017326405 -s 1 -d -1 -p ack -e 40 -c 2 -a 0 -i 9 -k AGT
+ -t 10.017326405 -s 1 -d 0 -p ack -e 60 -c 2 -a 0 -i 9 -k RTR 
- -t 10.017326405 -s 1 -d 0 -p ack -e 60 -c 2 -a 0 -i 9 -k RTR
h -t 10.017326405 -s 1 -d 0 -p ack -e 60 -c 2 -a 0 -i 9 -k RTR
r -t 10.019592112 -s 0 -d 0 -p ack -e 60 -c 2 -a 0 -i 9 -k AGT
+ -t 10.019592112 -s 0 -d -1 -p tcp -e 1040 -c 2 -a 0 -i 10 -k AGT 
- -t 10.019592112 -s 0 -d -1 -p tcp -e 1040 -c 2 -a 0 -i 10 -k AGT
h -t 10.019592112 -s 0 -d -1 -p tcp -e 1040 -c 2 -a 0 -i 10 -k AGT
+ -t 10.019592112 -s 0 -d 1 -p tcp -e 1060 -c 2 -a 0 -i 10 -k RTR 
- -t 10.019592112 -s 0 -d 1 -p tcp -e 1060 -c 2 -a 0 -i 10 -k RTR
h -t 10.019592112 -s 0 -d 1 -p tcp -e 1060 -c 2 -a 0 -i 10 -k RTR
+ -t 10.019592112 -s 0 -d -1 -p tcp -e 1040 -c 2 -a 0 -i 11 -k AGT 
- -t 10.019592112 -s 0 -d -1 -p tcp -e 1040 -c 2 -a 0 -i 11 -k AGT
h -t 10.019592112 -s 0 -d -1 -p tcp -e 1040 -c 2 -a 0 -i 11 -k AGT
+ -t 10.019592112 -s 0 -d 1 -p tcp -e 1060 -c 2 -a 0 -i 11 -k RTR 
- -t 10.019592112 -s 0 -d 1 -p tcp -e 1060 -c 2 -a 0 -i 11 -k RTR
h -t 10.019592112 -s 0 -d 1 -p tcp -e 1060 -c 2 -a 0 -i 11 -k RTR
r -t 10.029677820 -s 1 -d 1 -p tcp -e 1060 -c 2 -a 0 -i 8 -k AGT
+ -t 10.029677820 -s 1 -d -1 -p ack -e 40 -c 2 -a 0 -i 12 -k AGT 
- -t 10.029677820 -s 1 -d -1 -p ack -e 40 -c 2 -a 0 -i 12 -k AGT
h -t 10.029677820 -s 1 -d -1 -p ack -e 40 -c 2 -a 0 -i 12 -k AGT
+ -t 10.029677820 -s 1 -d 0 -p ack -e 60 -c 2 -a 0 -i 12 -k RTR 
- -t 10.029677820 -s 1 -d 0 -p ack -e 60 -c 2 -a 0 -i 12 -k RTR
h -t 10.029677820 -s 1 -d 0 -p ack -e 60 -c 2 -a 0 -i 12 -k RTR
r -t 10.031723527 -s 0 -d 0 -p ack -e 60 -c 2 -a 0 -i 12 -k AGT
+ -t 10.031723527 -s 0 -d -1 -p tcp -e 1040 -c 2 -a 0 -i 13 -k AGT 
- -t 10.031723527 -s 0 -d -1 -p tcp -e 1040 -c 2 -a 0 -i 13 -k AGT
h -t 10.031723527 -s 0 -d -1 -p tcp -e 1040 -c 2 -a 0 -i 13 -k AGT
+ -t 10.031723527 -s 0 -d 1 -p tcp -e 1060 -c 2 -a 0 -i 13 -k RTR 
- -t 10.031723527 -s 0 -d 1 -p tcp -e 1060 -c 2 -a 0 -i 13 -k RTR
h -t 10.031723527 -s 0 -d 1 -p tcp -e 1060 -c 2 -a 0 -i 13 -k RTR
+ -t 10.031723527 -s 0 -d -1 -p tcp -e 1040 -c 2 -a 0 -i 14 -k AGT 
- -t 10.031723527 -s 0 -d -1 -p tcp -e 1040 -c 2 -a 0 -i 14 -k AGT
h -t 10.031723527 -s 0 -d -1 -p tcp -e 1040 -c 2 -a 0 -i 14 -k AGT
+ -t 10.031723527 -s 0 -d 1 -p tcp -e 1060 -c 2 -a 0 -i 14 -k RTR 
- -t 10.031723527 -s 0 -d 1 -p tcp -e 1060 -c 2 -a 0 -i 14 -k RTR
h -t 10.031723527 -s 0 -d 1 -p tcp -e 1060 -c 2 -a 0 -i 14 -k RTR
r -t 10.041749233 -s 1 -d 1 -p tcp -e 1060 -c 2 -a 0 -i 10 -k AGT
+ -t 10.041749233 -s 1 -d -1 -p ack -e 40 -c 2 -a 0 -i 15 -k AGT 
- -t 10.041749233 -s 1 -d -1 -p ack -e 40 -c 2 -a 0 -i 15 -k AGT
h -t 10.041749233 -s 1 -d -1 -p ack -e 40 -c 2 -a 0 -i 15 -k AGT
+ -t 10.041749233 -s 1 -d 0 -p ack -e 60 -c 2 -a 0 -i 15 -k RTR 
- -t 10.041749233 -s 1 -d 0 -p ack -e 60 -c 2 -a 0 -i 15 -k RTR
h -t 10.041749233 -s 1 -d 0 -p ack -e 60 -c 2 -a 0 -i 15 -k RTR
r -t 10.051935508 -s 1 -d 1 -p tcp -e 1060 -c 2 -a 0 -i 11 -k AGT
+ -t 10.051935508 -s 1 -d -1 -p ack -e 40 -c 2 -a 0 -i 16 -k AGT 
- -t 10.051935508 -s 1 -d -1 -p ack -e 40 -c 2 -a 0 -i 16 -k AGT
h -t 10.051935508 -s 1 -d -1 -p ack -e 40 -c 2 -a 0 -i 16 -k AGT
+ -t 10.051935508 -s 1 -d 0 -p ack -e 60 -c 2 -a 0 -i 16 -k RTR 
- -t 10.051935508 -s 1 -d 0 -p ack -e 60 -c 2 -a 0 -i 16 -k RTR
h -t 10.051935508 -s 1 -d 0 -p ack -e 60 -c 2 -a 0 -i 16 -k RTR
r -t 10.053981213 -s 0 -d 0 -p ack -e 60 -c 2 -a 0 -i 15 -k AGT
+ -t 10.053981213 -s 0 -d -1 -p tcp -e 1040 -c 2 -a 0 -i 17 -k AGT 
- -t 10.053981213 -s 0 -d -1 -p tcp -e 1040 -c 2 -a 0 -i 17 -k AGT
h -t 10.053981213 -s 0 -d -1 -p tcp -e 1040 -c 2 -a 0 -i 17 -k AGT
+ -t 10.053981213 -s 0 -d 1 -p tcp -e 1060 -c 2 -a 0 -i 17 -k RTR 
- -t 10.053981213 -s 0 -d 1 -p tcp -e 1060 -c 2 -a 0 -i 17 -k RTR
h -t 10.053981213 -s 0 -d 1 -p tcp -e 1060 -c 2 -a 0 -i 17 -k RTR
+ -t 10.053981213 -s 0 -d -1 -p tcp -e 1040 -c 2 -a 0 -i 18 -k AGT 
- -t 10.053981213 -s 0 -d -1 -p tcp -e 1040 -c 2 -a 0 -i 18 -k AGT
h -t 10.053981213 -s 0 -d -1 -p tcp -e 1040 -c 2 -a 0 -i 18 -k AGT
+ -t 10.053981213 -s 0 -d 1 -p tcp -e 1060 -c 2 -a 0 -i 18 -k RTR 
- -t 10.053981213 -s 0 -d 1 -p tcp -e 1060 -c 2 -a 0 -i 18 -k RTR
h -t 10.053981213 -s 0 -d 1 -p tcp -e 1060 -c 2 -a 0 -i 18 -k RTR
r -t 10.064026918 -s 1 -d 1 -p tcp -e 1060 -c 2 -a 0 -i 13 -k AGT
+ -t 10.064026918 -s 1 -d -1 -p ack -e 40 -c 2 -a 0 -i 19 -k AGT 
- -t 10.064026918 -s 1 -d -1 -p ack -e 40 -c 2 -a 0 -i 19 -k AGT
h -t 10.064026918 -s 1 -d -1 -p ack -e 40 -c 2 -a 0 -i 19 -k AGT
+ -t 10.064026918 -s 1 -d 0 -p ack -e 60 -c 2 -a 0 -i 19 -k RTR 
- -t 10.064026918 -s 1 -d 0 -p ack -e 60 -c 2 -a 0 -i 19 -k RTR
h -t 10.064026918 -s 1 -d 0 -p ack -e 60 -c 2 -a 0 -i 19 -k RTR
r -t 10.074233191 -s 1 -d 1 -p tcp -e 1060 -c 2 -a 0 -i 14 -k AGT
+ -t 10.074233191 -s 1 -d -1 -p ack -e 40 -c 2 -a 0 -i 20 -k AGT 
- -t 10.074233191 -s 1 -d -1 -p ack -e 40 -c 2 -a 0 -i 20 -k AGT
h -t 10.074233191 -s 1 -d -1 -p ack -e 40 -c 2 -a 0 -i 20 -k AGT
+ -t 10.074233191 -s 1 -d 0 -p ack -e 60 -c 2 -a 0 -i 20 -k RTR 
- -t 10.074233191 -s 1 -d 0 -p ack -e 60 -c 2 -a 0 -i 20 -k RTR
h -t 10.074233191 -s 1 -d 0 -p ack -e 60 -c 2 -a 0 -i 20 -k RTR
r -t 10.084419462 -s 1 -d 1 -p tcp -e 1060 -c 2 -a 0 -i 17 -k AGT
+ -t 10.084419462 -s 1 -d -1 -p ack -e 40 -c 2 -a 0 -i 21 -k AGT 
- -t 10.084419462 -s 1 -d -1 -p ack -e 40 -c 2 -a 0 -i 21 -k AGT
h -t 10.084419462 -s 1 -d -1 -p ack -e 40 -c 2 -a 0 -i 21 -k AGT
+ -t 10.084419462 -s 1 -d 0 -p ack -e 60 -c 2 -a 0 -i 21 -k RTR 
- -t 10.084419462 -s 1 -d 0 -p ack -e 60 -c 2 -a 0 -i 21 -k RTR
h -t 10.084419462 -s 1 -d 0 -p ack -e 60 -c 2 -a 0 -i 21 -k RTR
r -t 10.086465165 -s 0 -d 0 -p ack -e 60 -c 2 -a 0 -i 16 -k AGT
+ -t 10.086465165 -s 0 -d -1 -p tcp -e 1040 -c 2 -a 0 -i 22 -k AGT 
- -t 10.086465165 -s 0 -d -1 -p tcp -e 1040 -c 2 -a 0 -i 22 -k AGT
h -t 10.086465165 -s 0 -d -1 -p tcp -e 1040 -c 2 -a 0 -i 22 -k AGT
+ -t 10.086465165 -s 0 -d 1 -p tcp -e 1060 -c 2 -a 0 -i 22 -k RTR 
- -t 10.086465165 -s 0 -d 1 -p tcp -e 1060 -c 2 -a 0 -i 22 -k RTR
h -t 10.086465165 -s 0 -d 1 -p tcp -e 1060 -c 2 -a 0 -i 22 -k RTR
+ -t 10.086465165 -s 0 -d -1 -p tcp -e 1040 -c 2 -a 0 -i 23 -k AGT 
- -t 10.086465165 -s 0 -d -1 -p tcp -e 1040 -c 2 -a 0 -i 23 -k AGT
h -t 10.086465165 -s 0 -d -1 -p tcp -e 1040 -c 2 -a 0 -i 23 -k AGT
+ -t 10.086465165 -s 0 -d 1 -p tcp -e 1060 -c 2 -a 0 -i 23 -k RTR 
- -t 10.086465165 -s 0 -d 1 -p tcp -e 1060 -c 2 -a 0 -i 23 -k RTR
h -t 10.086465165 -s 0 -d 1 -p tcp -e 1060 -c 2 -a 0 -i 23 -k RTR
r -t 10.088511436 -s 0 -d 0 -p ack -e 60 -c 2 -a 0 -i 19 -k AGT
+ -t 10.088511436 -s 0 -d -1 -p tcp -e 1040 -c 2 -a 0 -i 24 -k AGT 
- -t 10.088511436 -s 0 -d -1 -p tcp -e 1040 -c 2 -a 0 -i 24 -k AGT
h -t 10.088511436 -s 0 -d -1 -p tcp -e 1040 -c 2 -a 0 -i 24 -k AGT
+ -t 10.088511436 -s 0 -d 1 -p tcp -e 1060 -c 2 -a 0 -i 24 -k RTR 
- -t 10.088511436 -s 0 -d 1 -p tcp -e 1060 -c 2 -a 0 -i 24 -k RTR
h -t 10.088511436 -s 0 -d 1 -p tcp -e 1060 -c 2 -a 0 -i 24 -k RTR
+ -t 10.088511436 -s 0 -d -1 -p tcp -e 1040 -c 2 -a 0 -i 25 -k AGT 
- -t 10.088511436 -s 0 -d -1 -p tcp -e 1040 -c 2 -a 0 -i 25 -k AGT
h -t 10.088511436 -s 0 -d -1 -p tcp -e 1040 -c 2 -a 0 -i 25 -k AGT
+ -t 10.088511436 -s 0 -d 1 -p tcp -e 1060 -c 2 -a 0 -i 25 -k RTR 
- -t 10.088511436 -s 0 -d 1 -p tcp -e 1060 -c 2 -a 0 -i 25 -k RTR
h -t 10.088511436 -s 0 -d 1 -p tcp -e 1060 -c 2 -a 0 -i 25 -k RTR
r -t 10.090617706 -s 0 -d 0 -p ack -e 60 -c 2 -a 0 -i 20 -k AGT
+ -t 10.090617706 -s 0 -d -1 -p tcp -e 1040 -c 2 -a 0 -i 26 -k AGT 
- -t 10.090617706 -s 0 -d -1 -p tcp -e 1040 -c 2 -a 0 -i 26 -k AGT
h -t 10.090617706 -s 0 -d -1 -p tcp -e 1040 -c 2 -a 0 -i 26 -k AGT
+ -t 10.090617706 -s 0 -d 1 -p tcp -e 1060 -c 2 -a 0 -i 26 -k RTR 
- -t 10.090617706 -s 0 -d 1 -p tcp -e 1060 -c 2 -a 0 -i 26 -k RTR
h -t 10.090617706 -s 0 -d 1 -p tcp -e 1060 -c 2 -a 0 -i 26 -k RTR
+ -t 10.090617706 -s 0 -d -1 -p tcp -e 1040 -c 2 -a 0 -i 27 -k AGT 
- -t 10.090617706 -s 0 -d -1 -p tcp -e 1040 -c 2 -a 0 -i 27 -k AGT
h -t 10.090617706 -s 0 -d -1 -p tcp -e 1040 -c 2 -a 0 -i 27 -k AGT
+ -t 10.090617706 -s 0 -d 1 -p tcp -e 1060 -c 2 -a 0 -i 27 -k RTR 
- -t 10.090617706 -s 0 -d 1 -p tcp -e 1060 -c 2 -a 0 -i 27 -k RTR
h -t 10.090617706 -s 0 -d 1 -p tcp -e 1060 -c 2 -a 0 -i 27 -k RTR
r -t 10.092943976 -s 0 -d 0 -p ack -e 60 -c 2 -a 0 -i 21 -k AGT
+ -t 10.092943976 -s 0 -d -1 -p tcp -e 1040 -c 2 -a 0 -i 28 -k AGT 
- -t 10.092943976 -s 0 -d -1 -p tcp -e 1040 -c 2 -a 0 -i 28 -k AGT
h -t 10.092943976 -s 0 -d -1 -p tcp -e 1040 -c 2 -a 0 -i 28 -k AGT
+ -t 10.092943976 -s 0 -d 1 -p tcp -e 1060 -c 2 -a 0 -i 28 -k RTR 
- -t 10.092943976 -s 0 -d 1 -p tcp -e 1060 -c 2 -a 0 -i 28 -k RTR
h -t 10.092943976 -s 0 -d 1 -p tcp -e 1060 -c 2 -a 0 -i 28 -k RTR
+ -t 10.092943976 -s 0 -d -1 -p tcp -e 1040 -c 2 -a 0 -i 29 -k AGT 
- -t 10.092943976 -s 0 -d -1 -p tcp -e 1040 -c 2 -a 0 -i 29 -k AGT
h -t 10.092943976 -s 0 -d -1 -p tcp -e 1040 -c 2 -a 0 -i 29 -k AGT
+ -t 10.092943976 -s 0 -d 1 -p tcp -e 1060 -c 2 -a 0 -i 29 -k RTR 
- -t 10.092943976 -s 0 -d 1 -p tcp -e 1060 -c 2 -a 0 -i 29 -k RTR
h -t 10.092943976 -s 0 -d 1 -p tcp -e 1060 -c 2 -a 0 -i 29 -k RTR
r -t 10.102949678 -s 1 -d 1 -p tcp -e 1060 -c 2 -a 0 -i 18 -k AGT
+ -t 10.102949678 -s 1 -d -1 -p ack -e 40 -c 2 -a 0 -i 30 -k AGT 
- -t 10.102949678 -s 1 -d -1 -p ack -e 40 -c 2 -a 0 -i 30 -k AGT
h -t 10.102949678 -s 1 -d -1 -p ack -e 40 -c 2 -a 0 -i 30 -k AGT
+ -t 10.102949678 -s 1 -d 0 -p ack -e 60 -c 2 -a 0 -i 30 -k RTR 
- -t 10.102949678 -s 1 -d 0 -p ack -e 60 -c 2 -a 0 -i 30 -k RTR
h -t 10.102949678 -s 1 -d 0 -p ack -e 60 -c 2 -a 0 -i 30 -k RTR
r -t 10.113215947 -s 1 -d 1 -p tcp -e 1060 -c 2 -a 0 -i 22 -k AGT
+ -t 10.113215947 -s 1 -d -1 -p ack -e 40 -c 2 -a 0 -i 31 -k AGT 
- -t 10.113215947 -s 1 -d -1 -p ack -e 40 -c 2 -a 0 -i 31 -k AGT
h -t 10.113215947 -s 1 -d -1 -p ack -e 40 -c 2 -a 0 -i 31 -k AGT
+ -t 10.113215947 -s 1 -d 0 -p ack -e 60 -c 2 -a 0 -i 31 -k RTR 
- -t 10.113215947 -s 1 -d 0 -p ack -e 60 -c 2 -a 0 -i 31 -k RTR
h -t 10.113215947 -s 1 -d 0 -p ack -e 60 -c 2 -a 0 -i 31 -k RTR
r -t 10.123382215 -s 1 -d 1 -p tcp -e 1060 -c 2 -a 0 -i 23 -k AGT
+ -t 10.123382215 -s 1 -d -1 -p ack -e 40 -c 2 -a 0 -i 32 -k AGT 
- -t 10.123382215 -s 1 -d -1 -p ack -e 40 -c 2 -a 0 -i 32 -k AGT
h -t 10.123382215 -s 1 -d -1 -p ack -e 40 -c 2 -a 0 -i 32 -k AGT
+ -t 10.123382215 -s 1 -d 0 -p ack -e 60 -c 2 -a 0 -i 32 -k RTR 
- -t 10.123382215 -s 1 -d 0 -p ack -e 60 -c 2 -a 0 -i 32 -k RTR
h -t 10.123382215 -s 1 -d 0 -p ack -e 60 -c 2 -a 0 -i 32 -k RTR
r -t 10.125407915 -s 0 -d 0 -p ack -e 60 -c 2 -a 0 -i 30 -k AGT
+ -t 10.125407915 -s 0 -d -1 -p tcp -e 1040 -c 2 -a 0 -i 33 -k AGT 
- -t 10.125407915 -s 0 -d -1 -p tcp -e 1040 -c 2 -a 0 -i 33 -k AGT
h -t 10.125407915 -s 0 -d -1 -p tcp -e 1040 -c 2 -a 0 -i 33 -k AGT
+ -t 10.125407915 -s 0 -d 1 -p tcp -e 1060 -c 2 -a 0 -i 33 -k RTR 
- -t 10.125407915 -s 0 -d 1 -p tcp -e 1060 -c 2 -a 0 -i 33 -k RTR
h -t 10.125407915 -s 0 -d 1 -p tcp -e 1060 -c 2 -a 0 -i 33 -k RTR
+ -t 10.125407915 -s 0 -d -1 -p tcp -e 1040 -c 2 -a 0 -i 34 -k AGT 
- -t 10.125407915 -s 0 -d -1 -p tcp -e 1040 -c 2 -a 0 -i 34 -k AGT
h -t 10.125407915 -s 0 -d -1 -p tcp -e 1040 -c 2 -a 0 -i 34 -k AGT
+ -t 10.125407915 -s 0 -d 1 -p tcp -e 1060 -c 2 -a 0 -i 34 -k RTR 
- -t 10.125407915 -s 0 -d 1 -p tcp -e 1060 -c 2 -a 0 -i 34 -k RTR
h -t 10.125407915 -s 0 -d 1 -p tcp -e 1060 -c 2 -a 0 -i 34 -k RTR
r -t 10.135653615 -s 1 -d 1 -p tcp -e 1060 -c 2 -a 0 -i 24 -k AGT
+ -t 10.135653615 -s 1 -d -1 -p ack -e 40 -c 2 -a 0 -i 35 -k AGT 
- -t 10.135653615 -s 1 -d -1 -p ack -e 40 -c 2 -a 0 -i 35 -k AGT
h -t 10.135653615 -s 1 -d -1 -p ack -e 40 -c 2 -a 0 -i 35 -k AGT
+ -t 10.135653615 -s 1 -d 0 -p ack -e 60 -c 2 -a 0 -i 35 -k RTR 
- -t 10.135653615 -s 1 -d 0 -p ack -e 60 -c 2 -a 0 -i 35 -k RTR
h -t 10.135653615 -s 1 -d 0 -p ack -e 60 -c 2 -a 0 -i 35 -k RTR
r -t 10.145639880 -s 1 -d 1 -p tcp -e 1060 -c 2 -a 0 -i 25 -k AGT
+ -t 10.145639880 -s 1 -d -1 -p ack -e 40 -c 2 -a 0 -i 36 -k AGT 
- -t 10.145639880 -s 1 -d -1 -p ack -e 40 -c 2 -a 0 -i 36 -k AGT
h -t 10.145639880 -s 1 -d -1 -p ack -e 40 -c 2 -a 0 -i 36 -k AGT
+ -t 10.145639880 -s 1 -d 0 -p ack -e 60 -c 2 -a 0 -i 36 -k RTR 
- -t 10.145639880 -s 1 -d 0 -p ack -e 60 -c 2 -a 0 -i 36 -k RTR
h -t 10.145639880 -s 1 -d 0 -p ack -e 60 -c 2 -a 0 -i 36 -k RTR
r -t 10.155846145 -s 1 -d 1 -p tcp -e 1060 -c 2 -a 0 -i 26 -k AGT
+ -t 10.155846145 -s 1 -d -1 -p ack -e 40 -c 2 -a 0 -i 37 -k AGT 
- -t 10.155846145 -s 1 -d -1 -p ack -e 40 -c 2 -a 0 -i 37 -k AGT
h -t 10.155846145 -s 1 -d -1 -p ack -e 40 -c 2 -a 0 -i 37 -k AGT
+ -t 10.155846145 -s 1 -d 0 -p ack -e 60 -c 2 -a 0 -i 37 -k RTR 
- -t 10.155846145 -s 1 -d 0 -p ack -e 60 -c 2 -a 0 -i 37 -k RTR
h -t 10.155846145 -s 1 -d 0 -p ack -e 60 -c 2 -a 0 -i 37 -k RTR
r -t 10.157851843 -s 0 -d 0 -p ack -e 60 -c 2 -a 0 -i 31 -k AGT
+ -t 10.157851843 -s 0 -d -1 -p tcp -e 1040 -c 2 -a 0 -i 38 -k AGT 
- -t 10.157851843 -s 0 -d -1 -p tcp -e 1040 -c 2 -a 0 -i 38 -k AGT
h -t 10.157851843 -s 0 -d -1 -p tcp -e 1040 -c 2 -a 0 -i 38 -k AGT
+ -t 10.157851843 -s 0 -d 1 -p tcp -e 1060 -c 2 -a 0 -i 38 -k RTR 
- -t 10.157851843 -s 0 -d 1 -p tcp -e 1060 -c 2 -a 0 -i 38 -k RTR
h -t 10.157851843 -s 0 -d 1 -p tcp -e 1060 -c 2 -a 0 -i 38 -k RTR
+ -t 10.157851843 -s 0 -d -1 -p tcp -e 1040 -c 2 -a 0 -i 39 -k AGT 
- -t 10.157851843 -s 0 -d -1 -p tcp -e 1040 -c 2 -a 0 -i 39 -k AGT
h -t 10.157851843 -s 0 -d -1 -p tcp -e 1040 -c 2 -a 0 -i 39 -k AGT
+ -t 10.157851843 -s 0 -d 1 -p tcp -e 1060 -c 2 -a 0 -i 39 -k RTR 
- -t 10.157851843 -s 0 -d 1 -p tcp -e 1060 -c 2 -a 0 -i 39 -k RTR
h -t 10.157851843 -s 0 -d 1 -p tcp -e 1060 -c 2 -a 0 -i 39 -k RTR
r -t 10.159998107 -s 0 -d 0 -p ack -e 60 -c 2 -a 0 -i 32 -k AGT
+ -t 10.159998107 -s 0 -d -1 -p tcp -e 1040 -c 2 -a 0 -i 40 -k AGT 
- -t 10.159998107 -s 0 -d -1 -p tcp -e 1040 -c 2 -a 0 -i 40 -k AGT
h -t 10.159998107 -s 0 -d -1 -p tcp -e 1040 -c 2 -a 0 -i 40 -k AGT
+ -t 10.159998107 -s 0 -d 1 -p tcp -e 1060 -c 2 -a 0 -i 40 -k RTR 
- -t 10.159998107 -s 0 -d 1 -p tcp -e 1060 -c 2 -a 0 -i 40 -k RTR
h -t 10.159998107 -s 0 -d 1 -p tcp -e 1060 -c 2 -a 0 -i 40 -k RTR
+ -t 10.159998107 -s 0 -d -1 -p tcp -e 1040 -c 2 -a 0 -i 41 -k AGT 
- -t 10.159998107 -s 0 -d -1 -p tcp -e 1040 -c 2 -a 0 -i 41 -k AGT
h -t 10.159998107 -s 0 -d -1 -p tcp -e 1040 -c 2 -a 0 -i 41 -k AGT
+ -t 10.159998107 -s 0 -d 1 -p tcp -e 1060 -c 2 -a 0 -i 41 -k RTR 
- -t 10.159998107 -s 0 -d 1 -p tcp -e 1060 -c 2 -a 0 -i 41 -k RTR
h -t 10.159998107 -s 0 -d 1 -p tcp -e 1060 -c 2 -a 0 -i 41 -k RTR
r -t 10.170143804 -s 1 -d 1 -p tcp -e 1060 -c 2 -a 0 -i 27 -k AGT
+ -t 10.170143804 -s 1 -d -1 -p ack -e 40 -c 2 -a 0 -i 42 -k AGT 
- -t 10.170143804 -s 1 -d -1 -p ack -e 40 -c 2 -a 0 -i 42 -k AGT
h -t 10.170143804 -s 1 -d -1 -p ack -e 40 -c 2 -a 0 -i 42 -k AGT
+ -t 10.170143804 -s 1 -d 0 -p ack -e 60 -c 2 -a 0 -i 42 -k RTR 
- -t 10.170143804 -s 1 -d 0 -p ack -e 60 -c 2 -a 0 -i 42 -k RTR
h -t 10.170143804 -s 1 -d 0 -p ack -e 60 -c 2 -a 0 -i 42 -k RTR
r -t 10.172209501 -s 0 -d 0 -p ack -e 60 -c 2 -a 0 -i 35 -k AGT
+ -t 10.172209501 -s 0 -d -1 -p tcp -e 1040 -c 2 -a 0 -i 43 -k AGT 
- -t 10.172209501 -s 0 -d -1 -p tcp -e 1040 -c 2 -a 0 -i 43 -k AGT
h -t 10.172209501 -s 0 -d -1 -p tcp -e 1040 -c 2 -a 0 -i 43 -k AGT
+ -t 10.172209501 -s 0 -d 1 -p tcp -e 1060 -c 2 -a 0 -i 43 -k RTR 
- -t 10.172209501 -s 0 -d 1 -p tcp -e 1060 -c 2 -a 0 -i 43 -k RTR
h -t 10.172209501 -s 0 -d 1 -p tcp -e 1060 -c 2 -a 0 -i 43 -k RTR
+ -t 10.172209501 -s 0 -d -1 -p tcp -e 1040 -c 2 -a 0 -i 44 -k AGT 
- -t 10.172209501 -s 0 -d -1 -p tcp -e 1040 -c 2 -a 0 -i 44 -k AGT
h -t 10.172209501 -s 0 -d -1 -p tcp -e 1040 -c 2 -a 0 -i 44 -k AGT
+ -t 10.172209501 -s 0 -d 1 -p tcp -e 1060 -c 2 -a 0 -i 44 -k RTR 
- -t 10.172209501 -s 0 -d 1 -p tcp -e 1060 -c 2 -a 0 -i 44 -k RTR
h -t 10.172209501 -s 0 -d 1 -p tcp -e 1060 -c 2 -a 0 -i 44 -k RTR
r -t 10.182215198 -s 1 -d 1 -p tcp -e 1060 -c 2 -a 0 -i 28 -k AGT
+ -t 10.182215198 -s 1 -d -1 -p ack -e 40 -c 2 -a 0 -i 45 -k AGT 
- -t 10.182215198 -s 1 -d -1 -p ack -e 40 -c 2 -a 0 -i 45 -k AGT
h -t 10.182215198 -s 1 -d -1 -p ack -e 40 -c 2 -a 0 -i 45 -k AGT
+ -t 10.182215198 -s 1 -d 0 -p ack -e 60 -c 2 -a 0 -i 45 -k RTR 
- -t 10.182215198 -s 1 -d 0 -p ack -e 60 -c 2 -a 0 -i 45 -k RTR
h -t 10.182215198 -s 1 -d 0 -p ack -e 60 -c 2 -a 0 -i 45 -k RTR
r -t 10.192201459 -s 1 -d 1 -p tcp -e 1060 -c 2 -a 0 -i 29 -k AGT
+ -t 10.192201459 -s 1 -d -1 -p ack -e 40 -c 2 -a 0 -i 46 -k AGT 
- -t 10.192201459 -s 1 -d -1 -p ack -e 40 -c 2 -a 0 -i 46 -k AGT
h -t 10.192201459 -s 1 -d -1 -p ack -e 40 -c 2 -a 0 -i 46 -k AGT
+ -t 10.192201459 -s 1 -d 0 -p ack -e 60 -c 2 -a 0 -i 46 -k RTR 
- -t 10.192201459 -s 1 -d 0 -p ack -e 60 -c 2 -a 0 -i 46 -k RTR
h -t 10.192201459 -s 1 -d 0 -p ack -e 60 -c 2 -a 0 -i 46 -k RTR
r -t 10.202427719 -s 1 -d 1 -p tcp -e 1060 -c 2 -a 0 -i 33 -k AGT
+ -t 10.202427719 -s 1 -d -1 -p ack -e 40 -c 2 -a 0 -i 47 -k AGT 
- -t 10.202427719 -s 1 -d -1 -p ack -e 40 -c 2 -a 0 -i 47 -k AGT
h -t 10.202427719 -s 1 -d -1 -p ack -e 40 -c 2 -a 0 -i 47 -k AGT
+ -t 10.202427719 -s 1 -d 0 -p ack -e 60 -c 2 -a 0 -i 47 -k RTR 
- -t 10.202427719 -s 1 -d 0 -p ack -e 60 -c 2 -a 0 -i 47 -k RTR
h -t 10.202427719 -s 1 -d 0 -p ack -e 60 -c 2 -a 0 -i 47 -k RTR
r -t 10.204473414 -s 0 -d 0 -p ack -e 60 -c 2 -a 0 -i 36 -k AGT
+ -t 10.204473414 -s 0 -d -1 -p tcp -e 1040 -c 2 -a 0 -i 48 -k AGT 
- -t 10.204473414 -s 0 -d -1 -p tcp -e 1040 -c 2 -a 0 -i 48 -k AGT
h -t 10.204473414 -s 0 -d -1 -p tcp -e 1040 -c 2 -a 0 -i 48 -k AGT
+ -t 10.204473414 -s 0 -d 1 -p tcp -e 1060 -c 2 -a 0 -i 48 -k RTR 
- -t 10.204473414 -s 0 -d 1 -p tcp -e 1060 -c 2 -a 0 -i 48 -k RTR
h -t 10.204473414 -s 0 -d 1 -p tcp -e 1060 -c 2 -a 0 -i 48 -k RTR
+ -t 10.204473414 -s 0 -d -1 -p tcp -e 1040 -c 2 -a 0 -i 49 -k AGT 
- -t 10.204473414 -s 0 -d -1 -p tcp -e 1040 -c 2 -a 0 -i 49 -k AGT
h -t 10.204473414 -s 0 -d -1 -p tcp -e 1040 -c 2 -a 0 -i 49 -k AGT
+ -t 10.204473414 -s 0 -d 1 -p tcp -e 1060 -c 2 -a 0 -i 49 -k RTR 
- -t 10.204473414 -s 0 -d 1 -p tcp -e 1060 -c 2 -a 0 -i 49 -k RTR
h -t 10.204473414 -s 0 -d 1 -p tcp -e 1060 -c 2 -a 0 -i 49 -k RTR
r -t 10.214719108 -s 1 -d 1 -p tcp -e 1060 -c 2 -a 0 -i 34 -k AGT
+ -t 10.214719108 -s 1 -d -1 -p ack -e 40 -c 2 -a 0 -i 50 -k AGT 
- -t 10.214719108 -s 1 -d -1 -p ack -e 40 -c 2 -a 0 -i 50 -k AGT
h -t 10.214719108 -s 1 -d -1 -p ack -e 40 -c 2 -a 0 -i 50 -k AGT
+ -t 10.214719108 -s 1 -d 0 -p ack -e 60 -c 2 -a 0 -i 50 -k RTR 
- -t 10.214719108 -s 1 -d 0 -p ack -e 60 -c 2 -a 0 -i 50 -k RTR
h -t 10.214719108 -s 1 -d 0 -p ack -e 60 -c 2 -a 0 -i 50 -k RTR
r -t 10.224725366 -s 1 -d 1 -p tcp -e 1060 -c 2 -a 0 -i 38 -k AGT
+ -t 10.224725366 -s 1 -d -1 -p ack -e 40 -c 2 -a 0 -i 51 -k AGT 
- -t 10.224725366 -s 1 -d -1 -p ack -e 40 -c 2 -a 0 -i 51 -k AGT
h -t 10.224725366 -s 1 -d -1 -p ack -e 40 -c 2 -a 0 -i 51 -k AGT
+ -t 10.224725366 -s 1 -d 0 -p ack -e 60 -c 2 -a 0 -i 51 -k RTR 
- -t 10.224725366 -s 1 -d 0 -p ack -e 60 -c 2 -a 0 -i 51 -k RTR
h -t 10.224725366 -s 1 -d 0 -p ack -e 60 -c 2 -a 0 -i 51 -k RTR
r -t 10.226731059 -s 0 -d 0 -p ack -e 60 -c 2 -a 0 -i 37 -k AGT
+ -t 10.226731059 -s 0 -d -1 -p tcp -e 1040 -c 2 -a 0 -i 52 -k AGT 
- -t 10.226731059 -s 0 -d -1 -p tcp -e 1040 -c 2 -a 0 -i 52 -k AGT
h -t 10.226731059 -s 0 -d -1 -p tcp -e 1040 -c 2 -a 0 -i 52 -k AGT
+ -t 10.226731059 -s 0 -d 1 -p tcp -e 1060 -c 2 -a 0 -i 52 -k RTR 
- -t 10.226731059 -s 0 -d 1 -p tcp -e 1060 -c 2 -a 0 -i 52 -k RTR
h -t 10.226731059 -s 0 -d 1 -p tcp -e 1060 -c 2 -a 0 -i 52 -k RTR
+ -t 10.226731059 -s 0 -d -1 -p tcp -e 1040 -c 2 -a 0 -i 53 -k AGT 
- -t 10.226731059 -s 0 -d -1 -p tcp -e 1040 -c 2 -a 0 -i 53 -k AGT
h -t 10.226731059 -s 0 -d -1 -p tcp -e 1040 -c 2 -a 0 -i 53 -k AGT
+ -t 10.226731059 -s 0 -d 1 -p tcp -e 1060 -c 2 -a 0 -i 53 -k RTR 
- -t 10.226731059 -s 0 -d 1 -p tcp -e 1060 -c 2 -a 0 -i 53 -k RTR
h -t 10.226731059 -s 0 -d 1 -p tcp -e 1060 -c 2 -a 0 -i 53 -k RTR
r -t 10.228957316 -s 0 -d 0 -p ack -e 60 -c 2 -a 0 -i 42 -k AGT
+ -t 10.228957316 -s 0 -d -1 -p tcp -e 1040 -c 2 -a 0 -i 54 -k AGT 
- -t 10.228957316 -s 0 -d -1 -p tcp -e 1040 -c 2 -a 0 -i 54 -k AGT
h -t 10.228957316 -s 0 -d -1 -p tcp -e 1040 -c 2 -a 0 -i 54 -k AGT
+ -t 10.228957316 -s 0 -d 1 -p tcp -e 1060 -c 2 -a 0 -i 54 -k RTR 
- -t 10.228957316 -s 0 -d 1 -p tcp -e 1060 -c 2 -a 0 -i 54 -k RTR
h -t 10.228957316 -s 0 -d 1 -p tcp -e 1060 -c 2 -a 0 -i 54 -k RTR
+ -t 10.228957316 -s 0 -d -1 -p tcp -e 1040 -c 2 -a 0 -i 55 -k AGT 
- -t 10.228957316 -s 0 -d -1 -p tcp -e 1040 -c 2 -a 0 -i 55 -k AGT
h -t 10.228957316 -s 0 -d -1 -p tcp -e 1040 -c 2 -a 0 -i 55 -k AGT
+ -t 10.228957316 -s 0 -d 1 -p tcp -e 1060 -c 2 -a 0 -i 55 -k RTR 
- -t 10.228957316 -s 0 -d 1 -p tcp -e 1060 -c 2 -a 0 -i 55 -k RTR
h -t 10.228957316 -s 0 -d 1 -p tcp -e 1060 -c 2 -a 0 -i 55 -k RTR
r -t 10.231063573 -s 0 -d 0 -p ack -e 60 -c 2 -a 0 -i 45 -k AGT
+ -t 10.231063573 -s 0 -d -1 -p tcp -e 1040 -c 2 -a 0 -i 56 -k AGT 
- -t 10.231063573 -s 0 -d -1 -p tcp -e 1040 -c 2 -a 0 -i 56 -k AGT
h -t 10.231063573 -s 0 -d -1 -p tcp -e 1040 -c 2 -a 0 -i 56 -k AGT
+ -t 10.231063573 -s 0 -d 1 -p tcp -e 1060 -c 2 -a 0 -i 56 -k RTR 
- -t 10.231063573 -s 0 -d 1 -p tcp -e 1060 -c 2 -a 0 -i 56 -k RTR
h -t 10.231063573 -s 0 -d 1 -p tcp -e 1060 -c 2 -a 0 -i 56 -k RTR
+ -t 10.231063573 -s 0 -d -1 -p tcp -e 1040 -c 2 -a 0 -i 57 -k AGT 
- -t 10.231063573 -s 0 -d -1 -p tcp -e 1040 -c 2 -a 0 -i 57 -k AGT
h -t 10.231063573 -s 0 -d -1 -p tcp -e 1040 -c 2 -a 0 -i 57 -k AGT
+ -t 10.231063573 -s 0 -d 1 -p tcp -e 1060 -c 2 -a 0 -i 57 -k RTR 
- -t 10.231063573 -s 0 -d 1 -p tcp -e 1060 -c 2 -a 0 -i 57 -k RTR
h -t 10.231063573 -s 0 -d 1 -p tcp -e 1060 -c 2 -a 0 -i 57 -k RTR
r -t 10.241169266 -s 1 -d 1 -p tcp -e 1060 -c 2 -a 0 -i 39 -k AGT
+ -t 10.241169266 -s 1 -d -1 -p ack -e 40 -c 2 -a 0 -i 58 -k AGT 
- -t 10.241169266 -s 1 -d -1 -p ack -e 40 -c 2 -a 0 -i 58 -k AGT
h -t 10.241169266 -s 1 -d -1 -p ack -e 40 -c 2 -a 0 -i 58 -k AGT
+ -t 10.241169266 -s 1 -d 0 -p ack -e 60 -c 2 -a 0 -i 58 -k RTR 
- -t 10.241169266 -s 1 -d 0 -p ack -e 60 -c 2 -a 0 -i 58 -k RTR
h -t 10.241169266 -s 1 -d 0 -p ack -e 60 -c 2 -a 0 -i 58 -k RTR
r -t 10.251195521 -s 1 -d 1 -p tcp -e 1060 -c 2 -a 0 -i 40 -k AGT
+ -t 10.251195521 -s 1 -d -1 -p ack -e 40 -c 2 -a 0 -i 59 -k AGT 
- -t 10.251195521 -s 1 -d -1 -p ack -e 40 -c 2 -a 0 -i 59 -k AGT
h -t 10.251195521 -s 1 -d -1 -p ack -e 40 -c 2 -a 0 -i 59 -k AGT
+ -t 10.251195521 -s 1 -d 0 -p ack -e 60 -c 2 -a 0 -i 59 -k RTR 
- -t 10.251195521 -s 1 -d 0 -p ack -e 60 -c 2 -a 0 -i 59 -k RTR
h -t 10.251195521 -s 1 -d 0 -p ack -e 60 -c 2 -a 0 -i 59 -k RTR
r -t 10.253341213 -s 0 -d 0 -p ack -e 60 -c 2 -a 0 -i 46 -k AGT
+ -t 10.253341213 -s 0 -d -1 -p tcp -e 1040 -c 2 -a 0 -i 60 -k AGT 
- -t 10.253341213 -s 0 -d -1 -p tcp -e 1040 -c 2 -a 0 -i 60 -k AGT
h -t 10.253341213 -s 0 -d -1 -p tcp -e 1040 -c 2 -a 0 -i 60 -k AGT
+ -t 10.253341213 -s 0 -d 1 -p tcp -e 1060 -c 2 -a 0 -i 60 -k RTR 
- -t 10.253341213 -s 0 -d 1 -p tcp -e 1060 -c 2 -a 0 -i 60 -k RTR
h -t 10.253341213 -s 0 -d 1 -p tcp -e 1060 -c 2 -a 0 -i 60 -k RTR
+ -t 10.253341213 -s 0 -d -1 -p tcp -e 1040 -c 2 -a 0 -i 61 -k AGT 
- -t 10.253341213 -s 0 -d -1 -p tcp -e 1040 -c 2 -a 0 -i 61 -k AGT
h -t 10.253341213 -s 0 -d -1 -p tcp -e 1040 -c 2 -a 0 -i 61 -k AGT
+ -t 10.253341213 -s 0 -d 1 -p tcp -e 1060 -c 2 -a 0 -i 61 -k RTR 
- -t 10.253341213 -s 0 -d 1 -p tcp -e 1060 -c 2 -a 0 -i 61 -k RTR
h -t 10.253341213 -s 0 -d 1 -p tcp -e 1060 -c 2 -a 0 -i 61 -k RTR
r -t 10.255447467 -s 0 -d 0 -p ack -e 60 -c 2 -a 0 -i 47 -k AGT
+ -t 10.255447467 -s 0 -d -1 -p tcp -e 1040 -c 2 -a 0 -i 62 -k AGT 
- -t 10.255447467 -s 0 -d -1 -p tcp -e 1040 -c 2 -a 0 -i 62 -k AGT
h -t 10.255447467 -s 0 -d -1 -p tcp -e 1040 -c 2 -a 0 -i 62 -k AGT
+ -t 10.255447467 -s 0 -d 1 -p tcp -e 1060 -c 2 -a 0 -i 62 -k RTR 
- -t 10.255447467 -s 0 -d 1 -p tcp -e 1060 -c 2 -a 0 -i 62 -k RTR
h -t 10.255447467 -s 0 -d 1 -p tcp -e 1060 -c 2 -a 0 -i 62 -k RTR
+ -t 10.255447467 -s 0 -d -1 -p tcp -e 1040 -c 2 -a 0 -i 63 -k AGT 
- -t 10.255447467 -s 0 -d -1 -p tcp -e 1040 -c 2 -a 0 -i 63 -k AGT
h -t 10.255447467 -s 0 -d -1 -p tcp -e 1040 -c 2 -a 0 -i 63 -k AGT
+ -t 10.255447467 -s 0 -d 1 -p tcp -e 1060 -c 2 -a 0 -i 63 -k RTR 
- -t 10.255447467 -s 0 -d 1 -p tcp -e 1060 -c 2 -a 0 -i 63 -k RTR
h -t 10.255447467 -s 0 -d 1 -p tcp -e 1060 -c 2 -a 0 -i 63 -k RTR
r -t 10.265633158 -s 1 -d 1 -p tcp -e 1060 -c 2 -a 0 -i 41 -k AGT
+ -t 10.265633158 -s 1 -d -1 -p ack -e 40 -c 2 -a 0 -i 64 -k AGT 
- -t 10.265633158 -s 1 -d -1 -p ack -e 40 -c 2 -a 0 -i 64 -k AGT
h -t 10.265633158 -s 1 -d -1 -p ack -e 40 -c 2 -a 0 -i 64 -k AGT
+ -t 10.265633158 -s 1 -d 0 -p ack -e 60 -c 2 -a 0 -i 64 -k RTR 
- -t 10.265633158 -s 1 -d 0 -p ack -e 60 -c 2 -a 0 -i 64 -k RTR
h -t 10.265633158 -s 1 -d 0 -p ack -e 60 -c 2 -a 0 -i 64 -k RTR
r -t 10.267638848 -s 0 -d 0 -p ack -e 60 -c 2 -a 0 -i 50 -k AGT
+ -t 10.267638848 -s 0 -d -1 -p tcp -e 1040 -c 2 -a 0 -i 65 -k AGT 
- -t 10.267638848 -s 0 -d -1 -p tcp -e 1040 -c 2 -a 0 -i 65 -k AGT
h -t 10.267638848 -s 0 -d -1 -p tcp -e 1040 -c 2 -a 0 -i 65 -k AGT
+ -t 10.267638848 -s 0 -d 1 -p tcp -e 1060 -c 2 -a 0 -i 65 -k RTR 
- -t 10.267638848 -s 0 -d 1 -p tcp -e 1060 -c 2 -a 0 -i 65 -k RTR
h -t 10.267638848 -s 0 -d 1 -p tcp -e 1060 -c 2 -a 0 -i 65 -k RTR
+ -t 10.267638848 -s 0 -d -1 -p tcp -e 1040 -c 2 -a 0 -i 66 -k AGT 
- -t 10.267638848 -s 0 -d -1 -p tcp -e 1040 -c 2 -a 0 -i 66 -k AGT
h -t 10.267638848 -s 0 -d -1 -p tcp -e 1040 -c 2 -a 0 -i 66 -k AGT
+ -t 10.267638848 -s 0 -d 1 -p tcp -e 1060 -c 2 -a 0 -i 66 -k RTR 
- -t 10.267638848 -s 0 -d 1 -p tcp -e 1060 -c 2 -a 0 -i 66 -k RTR
h -t 10.267638848 -s 0 -d 1 -p tcp -e 1060 -c 2 -a 0 -i 66 -k RTR
r -t 10.269705101 -s 0 -d 0 -p ack -e 60 -c 2 -a 0 -i 51 -k AGT