s -t 0.031538939 -Hs 1 -Hd -1 -Ni 1 -Nx 238.00 -Ny 62.00 -Nz 0.00 -Ne -1.000000 -Nl RTR -Nw --- -Ma 0 -Md 0 -Ms 0 -Mt 0 -Is 1.255 -Id -1.255 -It message -Il 32 -If 0 -Ii 0 -Iv 32 
r -t 0.032599360 -Hs 3 -Hd -1 -Ni 3 -Nx 256.00 -Ny 187.00 -Nz 0.00 -Ne -1.000000 -Nl RTR -Nw --- -Ma 0 -Md ffffffff -Ms 1 -Mt 800 -Is 1.255 -Id -1.255 -It message -Il 32 -If 0 -Ii 0 -Iv 32 
r -t 0.032599420 -Hs 2 -Hd -1 -Ni 2 -Nx 134.00 -Ny 162.00 -Nz 0.00 -Ne -1.000000 -Nl RTR -Nw --- -Ma 0 -Md ffffffff -Ms 1 -Mt 800 -Is 1.255 -Id -1.255 -It message -Il 32 -If 0 -Ii 0 -Iv 32 
r -t 0.032599542 -Hs 4 -Hd -1 -Ni 4 -Nx 60.00 -Ny 94.00 -Nz 0.00 -Ne -1.000000 -Nl RTR -Nw --- -Ma 0 -Md ffffffff -Ms 1 -Mt 800 -Is 1.255 -Id -1.255 -It message -Il 32 -If 0 -Ii 0 -Iv 32 
r -t 0.032599633 -Hs 0 -Hd -1 -Ni 0 -Nx 192.00 -Ny 265.00 -Nz 0.00 -Ne -1.000000 -Nl RTR -Nw --- -Ma 0 -Md ffffffff -Ms 1 -Mt 800 -Is 1.255 -Id -1.255 -It message -Il 32 -If 0 -Ii 0 -Iv 32 
s -t 0.179336133 -Hs 2 -Hd -1 -Ni 2 -Nx 134.00 -Ny 162.00 -Nz 0.00 -Ne -1.000000 -Nl RTR -Nw --- -Ma 0 -Md 0 -Ms 0 -Mt 0 -Is 2.255 -Id -1.255 -It message -Il 32 -If 0 -Ii 1 -Iv 32 
r -t 0.180196468 -Hs 4 -Hd -1 -Ni 4 -Nx 60.00 -Ny 94.00 -Nz 0.00 -Ne -1.000000 -Nl RTR -Nw --- -Ma 0 -Md ffffffff -Ms 2 -Mt 800 -Is 2.255 -Id -1.255 -It message -Il 32 -If 0 -Ii 1 -Iv 32 
r -t 0.180196527 -Hs 0 -Hd -1 -Ni 0 -Nx 192.00 -Ny 265.00 -Nz 0.00 -Ne -1.000000 -Nl RTR -Nw --- -Ma 0 -Md ffffffff -Ms 2 -Mt 800 -Is 2.255 -Id -1.255 -It message -Il 32 -If 0 -Ii 1 -Iv 32 
r -t 0.180196548 -Hs 3 -Hd -1 -Ni 3 -Nx 256.00 -Ny 187.00 -Nz 0.00 -Ne -1.000000 -Nl RTR -Nw --- -Ma 0 -Md ffffffff -Ms 2 -Mt 800 -Is 2.255 -Id -1.255 -It message -Il 32 -If 0 -Ii 1 -Iv 32 
r -t 0.180196614 -Hs 1 -Hd -1 -Ni 1 -Nx 238.00 -Ny 62.00 -Nz 0.00 -Ne -1.000000 -Nl RTR -Nw --- -Ma 0 -Md ffffffff -Ms 2 -Mt 800 -Is 2.255 -Id -1.255 -It message -Il 32 -If 0 -Ii 1 -Iv 32 
s -t 0.888747441 -Hs 3 -Hd -1 -Ni 3 -Nx 256.00 -Ny 187.00 -Nz 0.00 -Ne -1.000000 -Nl RTR -Nw --- -Ma 0 -Md 0 -Ms 0 -Mt 0 -Is 3.255 -Id -1.255 -It message -Il 32 -If 0 -Ii 2 -Iv 32 
r -t 0.889807777 -Hs 0 -Hd -1 -Ni 0 -Nx 192.00 -Ny 265.00 -Nz 0.00 -Ne -1.000000 -Nl RTR -Nw --- -Ma 0 -Md ffffffff -Ms 3 -Mt 800 -Is 3.255 -Id -1.255 -It message -Il 32 -If 0 -Ii 2 -Iv 32 
r -t 0.889807856 -Hs 2 -Hd -1 -Ni 2 -Nx 134.00 -Ny 162.00 -Nz 0.00 -Ne -1.000000 -Nl RTR -Nw --- -Ma 0 -Md ffffffff -Ms 3 -Mt 800 -Is 3.255 -Id -1.255 -It message -Il 32 -If 0 -Ii 2 -Iv 32 
r -t 0.889807862 -Hs 1 -Hd -1 -Ni 1 -Nx 238.00 -Ny 62.00 -Nz 0.00 -Ne -1.000000 -Nl RTR -Nw --- -Ma 0 -Md ffffffff -Ms 3 -Mt 800 -Is 3.255 -Id -1.255 -It message -Il 32 -If 0 -Ii 2 -Iv 32 
r -t 0.889808164 -Hs 4 -Hd -1 -Ni 4 -Nx 60.00 -Ny 94.00 -Nz 0.00 -Ne -1.000000 -Nl RTR -Nw --- -Ma 0 -Md ffffffff -Ms 3 -Mt 800 -Is 3.255 -Id -1.255 -It message -Il 32 -If 0 -Ii 2 -Iv 32 
s -t 1.113509485 -Hs 0 -Hd -1 -Ni 0 -Nx 192.00 -Ny 265.00 -Nz 0.00 -Ne -1.000000 -Nl RTR -Nw --- -Ma 0 -Md 0 -Ms 0 -Mt 0 -Is 0.255 -Id -1.255 -It message -Il 32 -If 0 -Ii 3 -Iv 32 
r -t 1.114649821 -Hs 3 -Hd -1 -Ni 3 -Nx 256.00 -Ny 187.00 -Nz 0.00 -Ne -1.000000 -Nl RTR -Nw --- -Ma 0 -Md ffffffff -Ms 0 -Mt 800 -Is 0.255 -Id -1.255 -It message -Il 32 -If 0 -Ii 3 -Iv 32 
r -t 1.114649879 -Hs 2 -Hd -1 -Ni 2 -Nx 134.00 -Ny 162.00 -Nz 0.00 -Ne -1.000000 -Nl RTR -Nw --- -Ma 0 -Md ffffffff -Ms 0 -Mt 800 -Is 0.255 -Id -1.255 -It message -Il 32 -If 0 -Ii 3 -Iv 32 
r -t 1.114650178 -Hs 1 -Hd -1 -Ni 1 -Nx 238.00 -Ny 62.00 -Nz 0.00 -Ne -1.000000 -Nl RTR -Nw --- -Ma 0 -Md ffffffff -Ms 0 -Mt 800 -Is 0.255 -Id -1.255 -It message -Il 32 -If 0 -Ii 3 -Iv 32 
r -t 1.114650205 -Hs 4 -Hd -1 -Ni 4 -Nx 60.00 -Ny 94.00 -Nz 0.00 -Ne -1.000000 -Nl RTR -Nw --- -Ma 0 -Md ffffffff -Ms 0 -Mt 800 -Is 0.255 -Id -1.255 -It message -Il 32 -If 0 -Ii 3 -Iv 32 
s -t 1.600891786 -Hs 4 -Hd -1 -Ni 4 -Nx 60.00 -Ny 94.00 -Nz 0.00 -Ne -1.000000 -Nl RTR -Nw --- -Ma 0 -Md 0 -Ms 0 -Mt 0 -Is 4.255 -Id -1.255 -It message -Il 32 -If 0 -Ii 4 -Iv 32 
r -t 1.601952121 -Hs 2 -Hd -1 -Ni 2 -Nx 134.00 -Ny 162.00 -Nz 0.00 -Ne -1.000000 -Nl RTR -Nw --- -Ma 0 -Md ffffffff -Ms 4 -Mt 800 -Is 4.255 -Id -1.255 -It message -Il 32 -If 0 -Ii 4 -Iv 32 
r -t 1.601952389 -Hs 1 -Hd -1 -Ni 1 -Nx 238.00 -Ny 62.00 -Nz 0.00 -Ne -1.000000 -Nl RTR -Nw --- -Ma 0 -Md ffffffff -Ms 4 -Mt 800 -Is 4.255 -Id -1.255 -It message -Il 32 -If 0 -Ii 4 -Iv 32 
r -t 1.601952507 -Hs 0 -Hd -1 -Ni 0 -Nx 192.00 -Ny 265.00 -Nz 0.00 -Ne -1.000000 -Nl RTR -Nw --- -Ma 0 -Md ffffffff -Ms 4 -Mt 800 -Is 4.255 -Id -1.255 -It message -Il 32 -If 0 -Ii 4 -Iv 32 
r -t 1.601952510 -Hs 3 -Hd -1 -Ni 3 -Nx 256.00 -Ny 187.00 -Nz 0.00 -Ne -1.000000 -Nl RTR -Nw --- -Ma 0 -Md ffffffff -Ms 4 -Mt 800 -Is 4.255 -Id -1.255 -It message -Il 32 -If 0 -Ii 4 -Iv 32 
M 5.00000 0 (192.00, 265.00, 0.00), (296.00, 99.00), 8.00
M 10.00000 1 (238.00, 62.00, 0.00), (12.00, 28.00), 11.00
s -t 10.000000000 -Hs 0 -Hd -2 -Ni 0 -Nx 213.24 -Ny 231.10 -Nz 0.00 -Ne -1.000000 -Nl AGT -Nw --- -Ma 0 -Md 0 -Ms 0 -Mt 0 -Is 0.0 -Id 1.0 -It tcp -Il 40 -If 2 -Ii 5 -Iv 32 -Pn tcp -Ps 0 -Pa 0 -Pf 0 -Po 0 
r -t 10.000000000 -Hs 0 -Hd -2 -Ni 0 -Nx 213.24 -Ny 231.10 -Nz 0.00 -Ne -1.000000 -Nl RTR -Nw --- -Ma 0 -Md 0 -Ms 0 -Mt 0 -Is 0.0 -Id 1.0 -It tcp -Il 40 -If 2 -Ii 5 -Iv 32 -Pn tcp -Ps 0 -Pa 0 -Pf 0 -Po 0 
s -t 10.000000000 -Hs 0 -Hd 1 -Ni 0 -Nx 213.24 -Ny 231.10 -Nz 0.00 -Ne -1.000000 -Nl RTR -Nw --- -Ma 0 -Md 0 -Ms 0 -Mt 0 -Is 0.0 -Id 1.0 -It tcp -Il 60 -If 2 -Ii 5 -Iv 32 -Pn tcp -Ps 0 -Pa 0 -Pf 0 -Po 0 
r -t 10.004934987 -Hs 1 -Hd 1 -Ni 1 -Nx 237.95 -Ny 61.99 -Nz 0.00 -Ne -1.000000 -Nl AGT -Nw --- -Ma 13a -Md 1 -Ms 0 -Mt 800 -Is 0.0 -Id 1.0 -It tcp -Il 60 -If 2 -Ii 5 -Iv 32 -Pn tcp -Ps 0 -Pa 0 -Pf 1 -Po 0 
s -t 10.004934987 -Hs 1 -Hd -2 -Ni 1 -Nx 237.95 -Ny 61.99 -Nz 0.00 -Ne -1.000000 -Nl AGT -Nw --- -Ma 0 -Md 0 -Ms 0 -Mt 0 -Is 1.0 -Id 0.0 -It ack -Il 40 -If 2 -Ii 6 -Iv 32 -Pn tcp -Ps 0 -Pa 0 -Pf 0 -Po 0 
r -t 10.004934987 -Hs 1 -Hd -2 -Ni 1 -Nx 237.95 -Ny 61.99 -Nz 0.00 -Ne -1.000000 -Nl RTR -Nw --- -Ma 0 -Md 0 -Ms 0 -Mt 0 -Is 1.0 -Id 0.0 -It ack -Il 40 -If 2 -Ii 6 -Iv 32 -Pn tcp -Ps 0 -Pa 0 -Pf 0 -Po 0 
s -t 10.004934987 -Hs 1 -Hd 0 -Ni 1 -Nx 237.95 -Ny 61.99 -Nz 0.00 -Ne -1.000000 -Nl RTR -Nw --- -Ma 0 -Md 0 -Ms 0 -Mt 0 -Is 1.0 -Id 0.0 -It ack -Il 60 -If 2 -Ii 6 -Iv 32 -Pn tcp -Ps 0 -Pa 0 -Pf 0 -Po 0 
r -t 10.007300696 -Hs 0 -Hd 0 -Ni 0 -Nx 213.27 -Ny 231.05 -Nz 0.00 -Ne -1.000000 -Nl AGT -Nw --- -Ma 13a -Md 0 -Ms 1 -Mt 800 -Is 1.0 -Id 0.0 -It ack -Il 60 -If 2 -Ii 6 -Iv 32 -Pn tcp -Ps 0 -Pa 0 -Pf 1 -Po 0 
s -t 10.007300696 -Hs 0 -Hd -2 -Ni 0 -Nx 213.27 -Ny 231.05 -Nz 0.00 -Ne -1.000000 -Nl AGT -Nw --- -Ma 0 -Md 0 -Ms 0 -Mt 0 -Is 0.0 -Id 1.0 -It tcp -Il 1040 -If 2 -Ii 7 -Iv 32 -Pn tcp -Ps 1 -Pa 0 -Pf 0 -Po 0 
r -t 10.007300696 -Hs 0 -Hd -2 -Ni 0 -Nx 213.27 -Ny 231.05 -Nz 0.00 -Ne -1.000000 -Nl RTR -Nw --- -Ma 0 -Md 0 -Ms 0 -Mt 0 -Is 0.0 -Id 1.0 -It tcp -Il 1040 -If 2 -Ii 7 -Iv 32 -Pn tcp -Ps 1 -Pa 0 -Pf 0 -Po 0 
s -t 10.007300696 -Hs 0 -Hd 1 -Ni 0 -Nx 213.27 -Ny 231.05 -Nz 0.00 -Ne -1.000000 -Nl RTR -Nw --- -Ma 0 -Md 0 -Ms 0 -Mt 0 -Is 0.0 -Id 1.0 -It tcp -Il 1060 -If 2 -Ii 7 -Iv 32 -Pn tcp -Ps 1 -Pa 0 -Pf 0 -Po 0 
s -t 10.007300696 -Hs 0 -Hd -2 -Ni 0 -Nx 213.27 -Ny 231.05 -Nz 0.00 -Ne -1.000000 -Nl AGT -Nw --- -Ma 0 -Md 0 -Ms 0 -Mt 0 -Is 0.0 -Id 1.0 -It tcp -Il 1040 -If 2 -Ii 8 -Iv 32 -Pn tcp -Ps 2 -Pa 0 -Pf 0 -Po 0 
r -t 10.007300696 -Hs 0 -Hd -2 -Ni 0 -Nx 213.27 -Ny 231.05 -Nz 0.00 -Ne -1.000000 -Nl RTR -Nw --- -Ma 0 -Md 0 -Ms 0 -Mt 0 -Is 0.0 -Id 1.0 -It tcp -Il 1040 -If 2 -Ii 8 -Iv 32 -Pn tcp -Ps 2 -Pa 0 -Pf 0 -Po 0 
s -t 10.007300696 -Hs 0 -Hd 1 -Ni 0 -Nx 213.27 -Ny 231.05 -Nz 0.00 -Ne -1.000000 -Nl RTR -Nw --- -Ma 0 -Md 0 -Ms 0 -Mt 0 -Is 0.0 -Id 1.0 -It tcp -Il 1060 -If 2 -Ii 8 -Iv 32 -Pn tcp -Ps 2 -Pa 0 -Pf 0 -Po 0 
r -t 10.017326405 -Hs 1 -Hd 1 -Ni 1 -Nx 237.81 -Ny 61.97 -Nz 0.00 -Ne -1.000000 -Nl AGT -Nw --- -Ma 13a -Md 1 -Ms 0 -Mt 800 -Is 0.0 -Id 1.0 -It tcp -Il 1060 -If 2 -Ii 7 -Iv 32 -Pn tcp -Ps 1 -Pa 0 -Pf 1 -Po 0 
s -t 10.017326405 -Hs 1 -Hd -2 -Ni 1 -Nx 237.81 -Ny 61.97 -Nz 0.00 -Ne -1.000000 -Nl AGT -Nw --- -Ma 0 -Md 0 -Ms 0 -Mt 0 -Is 1.0 -Id 0.0 -It ack -Il 40 -If 2 -Ii 9 -Iv 32 -Pn tcp -Ps 1 -Pa 0 -Pf 0 -Po 0 
r -t 10.017326405 -Hs 1 -Hd -2 -Ni 1 -Nx 237.81 -Ny 61.97 -Nz 0.00 -Ne -1.000000 -Nl RTR -Nw --- -Ma 0 -Md 0 -Ms 0 -Mt 0 -Is 1.0 -Id 0.0 -It ack -Il 40 -If 2 -Ii 9 -Iv 32 -Pn tcp -Ps 1 -Pa 0 -Pf 0 -Po 0 
s -t 10.017326405 -Hs 1 -Hd 0 -Ni 1 -Nx 237.81 -Ny 61.97 -Nz 0.00 -Ne -1.000000 -Nl RTR -Nw --- -Ma 0 -Md 0 -Ms 0 -Mt 0 -Is 1.0 -Id 0.0 -It ack -Il 60 -If 2 -Ii 9 -Iv 32 -Pn tcp -Ps 1 -Pa 0 -Pf 0 -Po 0 
r -t 10.019592112 -Hs 0 -Hd 0 -Ni 0 -Nx 213.32 -Ny 230.97 -Nz 0.00 -Ne -1.000000 -Nl AGT -Nw --- -Ma 13a -Md 0 -Ms 1 -Mt 800 -Is 1.0 -Id 0.0 -It ack -Il 60 -If 2 -Ii 9 -Iv 32 -Pn tcp -Ps 1 -Pa 0 -Pf 1 -Po 0 
s -t 10.019592112 -Hs 0 -Hd -2 -Ni 0 -Nx 213.32 -Ny 230.97 -Nz 0.00 -Ne -1.000000 -Nl AGT -Nw --- -Ma 0 -Md 0 -Ms 0 -Mt 0 -Is 0.0 -Id 1.0 -It tcp -Il 1040 -If 2 -Ii 10 -Iv 32 -Pn tcp -Ps 3 -Pa 0 -Pf 0 -Po 0 
r -t 10.019592112 -Hs 0 -Hd -2 -Ni 0 -Nx 213.32 -Ny 230.97 -Nz 0.00 -Ne -1.000000 -Nl RTR -Nw --- -Ma 0 -Md 0 -Ms 0 -Mt 0 -Is 0.0 -Id 1.0 -It tcp -Il 1040 -If 2 -Ii 10 -Iv 32 -Pn tcp -Ps 3 -Pa 0 -Pf 0 -Po 0 
s -t 10.019592112 -Hs 0 -Hd 1 -Ni 0 -Nx 213.32 -Ny 230.97 -Nz 0.00 -Ne -1.000000 -Nl RTR -Nw --- -Ma 0 -Md 0 -Ms 0 -Mt 0 -Is 0.0 -Id 1.0 -It tcp -Il 1060 -If 2 -Ii 10 -Iv 32 -Pn tcp -Ps 3 -Pa 0 -Pf 0 -Po 0 
s -t 10.019592112 -Hs 0 -Hd -2 -Ni 0 -Nx 213.32 -Ny 230.97 -Nz 0.00 -Ne -1.000000 -Nl AGT -Nw --- -Ma 0 -Md 0 -Ms 0 -Mt 0 -Is 0.0 -Id 1.0 -It tcp -Il 1040 -If 2 -Ii 11 -Iv 32 -Pn tcp -Ps 4 -Pa 0 -Pf 0 -Po 0 
r -t 10.019592112 -Hs 0 -Hd -2 -Ni 0 -Nx 213.32 -Ny 230.97 -Nz 0.00 -Ne -1.000000 -Nl RTR -Nw --- -Ma 0 -Md 0 -Ms 0 -Mt 0 -Is 0.0 -Id 1.0 -It tcp -Il 1040 -If 2 -Ii 11 -Iv 32 -Pn tcp -Ps 4 -Pa 0 -Pf 0 -Po 0 
s -t 10.019592112 -Hs 0 -Hd 1 -Ni 0 -Nx 213.32 -Ny 230.97 -Nz 0.00 -Ne -1.000000 -Nl RTR -Nw --- -Ma 0 -Md 0 -Ms 0 -Mt 0 -Is 0.0 -Id 1.0 -It tcp -Il 1060 -If 2 -Ii 11 -Iv 32 -Pn tcp -Ps 4 -Pa 0 -Pf 0 -Po 0 
r -t 10.029677820 -Hs 1 -Hd 1 -Ni 1 -Nx 237.68 -Ny 61.95 -Nz 0.00 -Ne -1.000000 -Nl AGT -Nw --- -Ma 13a -Md 1 -Ms 0 -Mt 800 -Is 0.0 -Id 1.0 -It tcp -Il 1060 -If 2 -Ii 8 -Iv 32 -Pn tcp -Ps 2 -Pa 0 -Pf 1 -Po 0 
s -t 10.029677820 -Hs 1 -Hd -2 -Ni 1 -Nx 237.68 -Ny 61.95 -Nz 0.00 -Ne -1.000000 -Nl AGT -Nw --- -Ma 0 -Md 0 -Ms 0 -Mt 0 -Is 1.0 -Id 0.0 -It ack -Il 40 -If 2 -Ii 12 -Iv 32 -Pn tcp -Ps 2 -Pa 0 -Pf 0 -Po 0 
r -t 10.029677820 -Hs 1 -Hd -2 -Ni 1 -Nx 237.68 -Ny 61.95 -Nz 0.00 -Ne -1.000000 -Nl RTR -Nw --- -Ma 0 -Md 0 -Ms 0 -Mt 0 -Is 1.0 -Id 0.0 -It ack -Il 40 -If 2 -Ii 12 -Iv 32 -Pn tcp -Ps 2 -Pa 0 -Pf 0 -Po 0 
s -t 10.029677820 -Hs 1 -Hd 0 -Ni 1 -Nx 237.68 -Ny 61.95 -Nz 0.00 -Ne -1.000000 -Nl RTR -Nw --- -Ma 0 -Md 0 -Ms 0 -Mt 0 -Is 1.0 -Id 0.0 -It ack -Il 60 -If 2 -Ii 12 -Iv 32 -Pn tcp -Ps 2 -Pa 0 -Pf 0 -Po 0 
r -t 10.031723527 -Hs 0 -Hd 0 -Ni 0 -Nx 213.37 -Ny 230.89 -Nz 0.00 -Ne -1.000000 -Nl AGT -Nw --- -Ma 13a -Md 0 -Ms 1 -Mt 800 -Is 1.0 -Id 0.0 -It ack -Il 60 -If 2 -Ii 12 -Iv 32 -Pn tcp -Ps 2 -Pa 0 -Pf 1 -Po 0 
s -t 10.031723527 -Hs 0 -Hd -2 -Ni 0 -Nx 213.37 -Ny 230.89 -Nz 0.00 -Ne -1.000000 -Nl AGT -Nw --- -Ma 0 -Md 0 -Ms 0 -Mt 0 -Is 0.0 -Id 1.0 -It tcp -Il 1040 -If 2 -Ii 13 -Iv 32 -Pn tcp -Ps 5 -Pa 0 -Pf 0 -Po 0 
r -t 10.031723527 -Hs 0 -Hd -2 -Ni 0 -Nx 213.37 -Ny 230.89 -Nz 0.00 -Ne -1.000000 -Nl RTR -Nw --- -Ma 0 -Md 0 -Ms 0 -Mt 0 -Is 0.0 -Id 1.0 -It tcp -Il 1040 -If 2 -Ii 13 -Iv 32 -Pn tcp -Ps 5 -Pa 0 -Pf 0 -Po 0 
s -t 10.031723527 -Hs 0 -Hd 1 -Ni 0 -Nx 213.37 -Ny 230.89 -Nz 0.00 -Ne -1.000000 -Nl RTR -Nw --- -Ma 0 -Md 0 -Ms 0 -Mt 0 -Is 0.0 -Id 1.0 -It tcp -Il 1060 -If 2 -Ii 13 -Iv 32 -Pn tcp -Ps 5 -Pa 0 -Pf 0 -Po 0 
s -t 10.031723527 -Hs 0 -Hd -2 -Ni 0 -Nx 213.37 -Ny 230.89 -Nz 0.00 -Ne -1.000000 -Nl AGT -Nw --- -Ma 0 -Md 0 -Ms 0 -Mt 0 -Is 0.0 -Id 1.0 -It tcp -Il 1040 -If 2 -Ii 14 -Iv 32 -Pn tcp -Ps 6 -Pa 0 -Pf 0 -Po 0 
r -t 10.031723527 -Hs 0 -Hd -2 -Ni 0 -Nx 213.37 -Ny 230.89 -Nz 0.00 -Ne -1.000000 -Nl RTR -Nw --- -Ma 0 -Md 0 -Ms 0 -Mt 0 -Is 0.0 -Id 1.0 -It tcp -Il 1040 -If 2 -Ii 14 -Iv 32 -Pn tcp -Ps 6 -Pa 0 -Pf 0 -Po 0 
s -t 10.031723527 -Hs 0 -Hd 1 -Ni 0 -Nx 213.37 -Ny 230.89 -Nz 0.00 -Ne -1.000000 -Nl RTR -Nw --- -Ma 0 -Md 0 -Ms 0 -Mt 0 -Is 0.0 -Id 1.0 -It tcp -Il 1060 -If 2 -Ii 14 -Iv 32 -Pn tcp -Ps 6 -Pa 0 -Pf 0 -Po 0 
r -t 10.041749233 -Hs 1 -Hd 1 -Ni 1 -Nx 237.55 -Ny 61.93 -Nz 0.00 -Ne -1.000000 -Nl AGT -Nw --- -Ma 13a -Md 1 -Ms 0 -Mt 800 -Is 0.0 -Id 1.0 -It tcp -Il 1060 -If 2 -Ii 10 -Iv 32 -Pn tcp -Ps 3 -Pa 0 -Pf 1 -Po 0 
s -t 10.041749233 -Hs 1 -Hd -2 -Ni 1 -Nx 237.55 -Ny 61.93 -Nz 0.00 -Ne -1.000000 -Nl AGT -Nw --- -Ma 0 -Md 0 -Ms 0 -Mt 0 -Is 1.0 -Id 0.0 -It ack -Il 40 -If 2 -Ii 15 -Iv 32 -Pn tcp -Ps 3 -Pa 0 -Pf 0 -Po 0 
r -t 10.041749233 -Hs 1 -Hd -2 -Ni 1 -Nx 237.55 -Ny 61.93 -Nz 0.00 -Ne -1.000000 -Nl RTR -Nw --- -Ma 0 -Md 0 -Ms 0 -Mt 0 -Is 1.0 -Id 0.0 -It ack -Il 40 -If 2 -Ii 15 -Iv 32 -Pn tcp -Ps 3 -Pa 0 -Pf 0 -Po 0 
s -t 10.041749233 -Hs 1 -Hd 0 -Ni 1 -Nx 237.55 -Ny 61.93 -Nz 0.00 -Ne -1.000000 -Nl RTR -Nw --- -Ma 0 -Md 0 -Ms 0 -Mt 0 -Is 1.0 -Id 0.0 -It ack -Il 60 -If 2 -Ii 15 -Iv 32 -Pn tcp -Ps 3 -Pa 0 -Pf 0 -Po 0 
r -t 10.051935508 -Hs 1 -Hd 1 -Ni 1 -Nx 237.44 -Ny 61.92 -Nz 0.00 -Ne -1.000000 -Nl AGT -Nw --- -Ma 13a -Md 1 -Ms 0 -Mt 800 -Is 0.0 -Id 1.0 -It tcp -Il 1060 -If 2 -Ii 11 -Iv 32 -Pn tcp -Ps 4 -Pa 0 -Pf 1 -Po 0 
s -t 10.051935508 -Hs 1 -Hd -2 -Ni 1 -Nx 237.44 -Ny 61.92 -Nz 0.00 -Ne -1.000000 -Nl AGT -Nw --- -Ma 0 -Md 0 -Ms 0 -Mt 0 -Is 1.0 -Id 0.0 -It ack -Il 40 -If 2 -Ii 16 -Iv 32 -Pn tcp -Ps 4 -Pa 0 -Pf 0 -Po 0 
r -t 10.051935508 -Hs 1 -Hd -2 -Ni 1 -Nx 237.44 -Ny 61.92 -Nz 0.00 -Ne -1.000000 -Nl RTR -Nw --- -Ma 0 -Md 0 -Ms 0 -Mt 0 -Is 1.0 -Id 0.0 -It ack -Il 40 -If 2 -Ii 16 -Iv 32 -Pn tcp -Ps 4 -Pa 0 -Pf 0 -Po 0 
s -t 10.051935508 -Hs 1 -Hd 0 -Ni 1 -Nx 237.44 -Ny 61.92 -Nz 0.00 -Ne -1.000000 -Nl RTR -Nw --- -Ma 0 -Md 0 -Ms 0 -Mt 0 -Is 1.0 -Id 0.0 -It ack -Il 60 -If 2 -Ii 16 -Iv 32 -Pn tcp -Ps 4 -Pa 0 -Pf 0 -Po 0 
r -t 10.053981213 -Hs 0 -Hd 0 -Ni 0 -Nx 213.47 -Ny 230.74 -Nz 0.00 -Ne -1.000000 -Nl AGT -Nw --- -Ma 13a -Md 0 -Ms 1 -Mt 800 -Is 1.0 -Id 0.0 -It ack -Il 60 -If 2 -Ii 15 -Iv 32 -Pn tcp -Ps 3 -Pa 0 -Pf 1 -Po 0 
s -t 10.053981213 -Hs 0 -Hd -2 -Ni 0 -Nx 213.47 -Ny 230.74 -Nz 0.00 -Ne -1.000000 -Nl AGT -Nw --- -Ma 0 -Md 0 -Ms 0 -Mt 0 -Is 0.0 -Id 1.0 -It tcp -Il 1040 -If 2 -Ii 17 -Iv 32 -Pn tcp -Ps 7 -Pa 0 -Pf 0 -Po 0 
r -t 10.053981213 -Hs 0 -Hd -2 -Ni 0 -Nx 213.47 -Ny 230.74 -Nz 0.00 -Ne -1.000000 -Nl RTR -Nw --- -Ma 0 -Md 0 -Ms 0 -Mt 0 -Is 0.0 -Id 1.0 -It tcp -Il 1040 -If 2 -Ii 17 -Iv 32 -Pn tcp -Ps 7 -Pa 0 -Pf 0 -Po 0 
s -t 10.053981213 -Hs 0 -Hd 1 -Ni 0 -Nx 213.47 -Ny 230.74 -Nz 0.00 -Ne -1.000000 -Nl RTR -Nw --- -Ma 0 -Md 0 -Ms 0 -Mt 0 -Is 0.0 -Id 1.0 -It tcp -Il 1060 -If 2 -Ii 17 -Iv 32 -Pn tcp -Ps 7 -Pa 0 -Pf 0 -Po 0 
s -t 10.053981213 -Hs 0 -Hd -2 -Ni 0 -Nx 213.47 -Ny 230.74 -Nz 0.00 -Ne -1.000000 -Nl AGT -Nw --- -Ma 0 -Md 0 -Ms 0 -Mt 0 -Is 0.0 -Id 1.0 -It tcp -Il 1040 -If 2 -Ii 18 -Iv 32 -Pn tcp -Ps 8 -Pa 0 -Pf 0 -Po 0 
r -t 10.053981213 -Hs 0 -Hd -2 -Ni 0 -Nx 213.47 -Ny 230.74 -Nz 0.00 -Ne -1.000000 -Nl RTR -Nw --- -Ma 0 -Md 0 -Ms 0 -Mt 0 -Is 0.0 -Id 1.0 -It tcp -Il 1040 -If 2 -Ii 18 -Iv 32 -Pn tcp -Ps 8 -Pa 0 -Pf 0 -Po 0 
s -t 10.053981213 -Hs 0 -Hd 1 -Ni 0 -Nx 213.47 -Ny 230.74 -Nz 0.00 -Ne -1.000000 -Nl RTR -Nw --- -Ma 0 -Md 0 -Ms 0 -Mt 0 -Is 0.0 -Id 1.0 -It tcp -Il 1060 -If 2 -Ii 18 -Iv 32 -Pn tcp -Ps 8 -Pa 0 -Pf 0 -Po 0 
r -t 10.064026918 -Hs 1 -Hd 1 -Ni 1 -Nx 237.30 -Ny 61.90 -Nz 0.00 -Ne -1.000000 -Nl AGT -Nw --- -Ma 13a -Md 1 -Ms 0 -Mt 800 -Is 0.0 -Id 1.0 -It tcp -Il 1060 -If 2 -Ii 13 -Iv 32 -Pn tcp -Ps 5 -Pa 0 -Pf 1 -Po 0 
s -t 10.064026918 -Hs 1 -Hd -2 -Ni 1 -Nx 237.30 -Ny 61.90 -Nz 0.00 -Ne -1.000000 -Nl AGT -Nw --- -Ma 0 -Md 0 -Ms 0 -Mt 0 -Is 1.0 -Id 0.0 -It ack -Il 40 -If 2 -Ii 19 -Iv 32 -Pn tcp -Ps 5 -Pa 0 -Pf 0 -Po 0 
r -t 10.064026918 -Hs 1 -Hd -2 -Ni 1 -Nx 237.30 -Ny 61.90 -Nz 0.00 -Ne -1.000000 -Nl RTR -Nw --- -Ma 0 -Md 0 -Ms 0 -Mt 0 -Is 1.0 -Id 0.0 -It ack -Il 40 -If 2 -Ii 19 -Iv 32 -Pn tcp -Ps 5 -Pa 0 -Pf 0 -Po 0 
s -t 10.064026918 -Hs 1 -Hd 0 -Ni 1 -Nx 237.30 -Ny 61.90 -Nz 0.00 -Ne -1.000000 -Nl RTR -Nw --- -Ma 0 -Md 0 -Ms 0 -Mt 0 -Is 1.0 -Id 0.0 -It ack -Il 60 -If 2 -Ii 19 -Iv 32 -Pn tcp -Ps 5 -Pa 0 -Pf 0 -Po 0 
r -t 10.074233191 -Hs 1 -Hd 1 -Ni 1 -Nx 237.19 -Ny 61.88 -Nz 0.00 -Ne -1.000000 -Nl AGT -Nw --- -Ma 13a -Md 1 -Ms 0 -Mt 800 -Is 0.0 -Id 1.0 -It tcp -Il 1060 -If 2 -Ii 14 -Iv 32 -Pn tcp -Ps 6 -Pa 0 -Pf 1 -Po 0 
s -t 10.074233191 -Hs 1 -Hd -2 -Ni 1 -Nx 237.19 -Ny 61.88 -Nz 0.00 -Ne -1.000000 -Nl AGT -Nw --- -Ma 0 -Md 0 -Ms 0 -Mt 0 -Is 1.0 -Id 0.0 -It ack -Il 40 -If 2 -Ii 20 -Iv 32 -Pn tcp -Ps 6 -Pa 0 -Pf 0 -Po 0 
r -t 10.074233191 -Hs 1 -Hd -2 -Ni 1 -Nx 237.19 -Ny 61.88 -Nz 0.00 -Ne -1.000000 -Nl RTR -Nw --- -Ma 0 -Md 0 -Ms 0 -Mt 0 -Is 1.0 -Id 0.0 -It ack -Il 40 -If 2 -Ii 20 -Iv 32 -Pn tcp -Ps 6 -Pa 0 -Pf 0 -Po 0 
s -t 10.074233191 -Hs 1 -Hd 0 -Ni 1 -Nx 237.19 -Ny 61.88 -Nz 0.00 -Ne -1.000000 -Nl RTR -Nw --- -Ma 0 -Md 0 -Ms 0 -Mt 0 -Is 1.0 -Id 0.0 -It ack -Il 60 -If 2 -Ii 20 -Iv 32 -Pn tcp -Ps 6 -Pa 0 -Pf 0 -Po 0 
r -t 10.084419462 -Hs 1 -Hd 1 -Ni 1 -Nx 237.08 -Ny 61.86 -Nz 0.00 -Ne -1.000000 -Nl AGT -Nw --- -Ma 13a -Md 1 -Ms 0 -Mt 800 -Is 0.0 -Id 1.0 -It tcp -Il 1060 -If 2 -Ii 17 -Iv 32 -Pn tcp -Ps 7 -Pa 0 -Pf 1 -Po 0 
s -t 10.084419462 -Hs 1 -Hd -2 -Ni 1 -Nx 237.08 -Ny 61.86 -Nz 0.00 -Ne -1.000000 -Nl AGT -Nw --- -Ma 0 -Md 0 -Ms 0 -Mt 0 -Is 1.0 -Id 0.0 -It ack -Il 40 -If 2 -Ii 21 -Iv 32 -Pn tcp -Ps 7 -Pa 0 -Pf 0 -Po 0 
r -t 10.084419462 -Hs 1 -Hd -2 -Ni 1 -Nx 237.08 -Ny 61.86 -Nz 0.00 -Ne -1.000000 -Nl RTR -Nw --- -Ma 0 -Md 0 -Ms 0 -Mt 0 -Is 1.0 -Id 0.0 -It ack -Il 40 -If 2 -Ii 21 -Iv 32 -Pn tcp -Ps 7 -Pa 0 -Pf 0 -Po 0 
s -t 10.084419462 -Hs 1 -Hd 0 -Ni 1 -Nx 237.08 -Ny 61.86 -Nz 0.00 -Ne -1.000000 -Nl RTR -Nw --- -Ma 0 -Md 0 -Ms 0 -Mt 0 -Is 1.0 -Id 0.0 -It ack -Il 60 -If 2 -Ii 21 -Iv 32 -Pn tcp -Ps 7 -Pa 0 -Pf 0 -Po 0 
r -t 10.086465165 -Hs 0 -Hd 0 -Ni 0 -Nx 213.60 -Ny 230.52 -Nz 0.00 -Ne -1.000000 -Nl AGT -Nw --- -Ma 13a -Md 0 -Ms 1 -Mt 800 -Is 1.0 -Id 0.0 -It ack -Il 60 -If 2 -Ii 16 -Iv 32 -Pn tcp -Ps 4 -Pa 0 -Pf 1 -Po 0 
s -t 10.086465165 -Hs 0 -Hd -2 -Ni 0 -Nx 213.60 -Ny 230.52 -Nz 0.00 -Ne -1.000000 -Nl AGT -Nw --- -Ma 0 -Md 0 -Ms 0 -Mt 0 -Is 0.0 -Id 1.0 -It tcp -Il 1040 -If 2 -Ii 22 -Iv 32 -Pn tcp -Ps 9 -Pa 0 -Pf 0 -Po 0 
r -t 10.086465165 -Hs 0 -Hd -2 -Ni 0 -Nx 213.60 -Ny 230.52 -Nz 0.00 -Ne -1.000000 -Nl RTR -Nw --- -Ma 0 -Md 0 -Ms 0 -Mt 0 -Is 0.0 -Id 1.0 -It tcp -Il 1040 -If 2 -Ii 22 -Iv 32 -Pn tcp -Ps 9 -Pa 0 -Pf 0 -Po 0 
s -t 10.086465165 -Hs 0 -Hd 1 -Ni 0 -Nx 213.60 -Ny 230.52 -Nz 0.00 -Ne -1.000000 -Nl RTR -Nw --- -Ma 0 -Md 0 -Ms 0 -Mt 0 -Is 0.0 -Id 1.0 -It tcp -Il 1060 -If 2 -Ii 22 -Iv 32 -Pn tcp -Ps 9 -Pa 0 -Pf 0 -Po 0 
s -t 10.086465165 -Hs 0 -Hd -2 -Ni 0 -Nx 213.60 -Ny 230.52 -Nz 0.00 -Ne -1.000000 -Nl AGT -Nw --- -Ma 0 -Md 0 -Ms 0 -Mt 0 -Is 0.0 -Id 1.0 -It tcp -Il 1040 -If 2 -Ii 23 -Iv 32 -Pn tcp -Ps 10 -Pa 0 -Pf 0 -Po 0 
r -t 10.086465165 -Hs 0 -Hd -2 -Ni 0 -Nx 213.60 -Ny 230.52 -Nz 0.00 -Ne -1.000000 -Nl RTR -Nw --- -Ma 0 -Md 0 -Ms 0 -Mt 0 -Is 0.0 -Id 1.0 -It tcp -Il 1040 -If 2 -Ii 23 -Iv 32 -Pn tcp -Ps 10 -Pa 0 -Pf 0 -Po 0 
s -t 10.086465165 -Hs 0 -Hd 1 -Ni 0 -Nx 213.60 -Ny 230.52 -Nz 0.00 -Ne -1.000000 -Nl RTR -Nw --- -Ma 0 -Md 0 -Ms 0 -Mt 0 -Is 0.0 -Id 1.0 -It tcp -Il 1060 -If 2 -Ii 23 -Iv 32 -Pn tcp -Ps 10 -Pa 0 -Pf 0 -Po 0 
r -t 10.088511436 -Hs 0 -Hd 0 -Ni 0 -Nx 213.61 -Ny 230.50 -Nz 0.00 -Ne -1.000000 -Nl AGT -Nw --- -Ma 13a -Md 0 -Ms 1 -Mt 800 -Is 1.0 -Id 0.0 -It ack -Il 60 -If 2 -Ii 19 -Iv 32 -Pn tcp -Ps 5 -Pa 0 -Pf 1 -Po 0 
s -t 10.088511436 -Hs 0 -Hd -2 -Ni 0 -Nx 213.61 -Ny 230.50 -Nz 0.00 -Ne -1.000000 -Nl AGT -Nw --- -Ma 0 -Md 0 -Ms 0 -Mt 0 -Is 0.0 -Id 1.0 -It tcp -Il 1040 -If 2 -Ii 24 -Iv 32 -Pn tcp -Ps 11 -Pa 0 -Pf 0 -Po 0 
r -t 10.088511436 -Hs 0 -Hd -2 -Ni 0 -Nx 213.61 -Ny 230.50 -Nz 0.00 -Ne -1.000000 -Nl RTR -Nw --- -Ma 0 -Md 0 -Ms 0 -Mt 0 -Is 0.0 -Id 1.0 -It tcp -Il 1040 -If 2 -Ii 24 -Iv 32 -Pn tcp -Ps 11 -Pa 0 -Pf 0 -Po 0 
s -t 10.088511436 -Hs 0 -Hd 1 -Ni 0 -Nx 213.61 -Ny 230.50 -Nz 0.00 -Ne -1.000000 -Nl RTR -Nw --- -Ma 0 -Md 0 -Ms 0 -Mt 0 -Is 0.0 -Id 1.0 -It tcp -Il 1060 -If 2 -Ii 24 -Iv 32 -Pn tcp -Ps 11 -Pa 0 -Pf 0 -Po 0 
s -t 10.088511436 -Hs 0 -Hd -2 -Ni 0 -Nx 213.61 -Ny 230.50 -Nz 0.00 -Ne -1.000000 -Nl AGT -Nw --- -Ma 0 -Md 0 -Ms 0 -Mt 0 -Is 0.0 -Id 1.0 -It tcp -Il 1040 -If 2 -Ii 25 -Iv 32 -Pn tcp -Ps 12 -Pa 0 -Pf 0 -Po 0 
r -t 10.088511436 -Hs 0 -Hd -2 -Ni 0 -Nx 213.61 -Ny 230.50 -Nz 0.00 -Ne -1.000000 -Nl RTR -Nw --- -Ma 0 -Md 0 -Ms 0 -Mt 0 -Is 0.0 -Id 1.0 -It tcp -Il 1040 -If 2 -Ii 25 -Iv 32 -Pn tcp -Ps 12 -Pa 0 -Pf 0 -Po 0 
s -t 10.088511436 -Hs 0 -Hd 1 -Ni 0 -Nx 213.61 -Ny 230.50 -Nz 0.00 -Ne -1.000000 -Nl RTR -Nw --- -Ma 0 -Md 0 -Ms 0 -Mt 0 -Is 0.0 -Id 1.0 -It tcp -Il 1060 -If 2 -Ii 25 -Iv 32 -Pn tcp -Ps 12 -Pa 0 -Pf 0 -Po 0 
r -t 10.090617706 -Hs 0 -Hd 0 -Ni 0 -Nx 213.62 -Ny 230.49 -Nz 0.00 -Ne -1.000000 -Nl AGT -Nw --- -Ma 13a -Md 0 -Ms 1 -Mt 800 -Is 1.0 -Id 0.0 -It ack -Il 60 -If 2 -Ii 20 -Iv 32 -Pn tcp -Ps 6 -Pa 0 -Pf 1 -Po 0 
s -t 10.090617706 -Hs 0 -Hd -2 -Ni 0 -Nx 213.62 -Ny 230.49 -Nz 0.00 -Ne -1.000000 -Nl AGT -Nw --- -Ma 0 -Md 0 -Ms 0 -Mt 0 -Is 0.0 -Id 1.0 -It tcp -Il 1040 -If 2 -Ii 26 -Iv 32 -Pn tcp -Ps 13 -Pa 0 -Pf 0 -Po 0 
r -t 10.090617706 -Hs 0 -Hd -2 -Ni 0 -Nx 213.62 -Ny 230.49 -Nz 0.00 -Ne -1.000000 -Nl RTR -Nw --- -Ma 0 -Md 0 -Ms 0 -Mt 0 -Is 0.0 -Id 1.0 -It tcp -Il 1040 -If 2 -Ii 26 -Iv 32 -Pn tcp -Ps 13 -Pa 0 -Pf 0 -Po 0 
s -t 10.090617706 -Hs 0 -Hd 1 -Ni 0 -Nx 213.62 -Ny 230.49 -Nz 0.00 -Ne -1.000000 -Nl RTR -Nw --- -Ma 0 -Md 0 -Ms 0 -Mt 0 -Is 0.0 -Id 1.0 -It tcp -Il 1060 -If 2 -Ii 26 -Iv 32 -Pn tcp -Ps 13 -Pa 0 -Pf 0 -Po 0 
s -t 10.090617706 -Hs 0 -Hd -2 -Ni 0 -Nx 213.62 -Ny 230.49 -Nz 0.00 -Ne -1.000000 -Nl AGT -Nw --- -Ma 0 -Md 0 -Ms 0 -Mt 0 -Is 0.0 -Id 1.0 -It tcp -Il 1040 -If 2 -Ii 27 -Iv 32 -Pn tcp -Ps 14 -Pa 0 -Pf 0 -Po 0 
r -t 10.090617706 -Hs 0 -Hd -2 -Ni 0 -Nx 213.62 -Ny 230.49 -Nz 0.00 -Ne -1.000000 -Nl RTR -Nw --- -Ma 0 -Md 0 -Ms 0 -Mt 0 -Is 0.0 -Id 1.0 -It tcp -Il 1040 -If 2 -Ii 27 -Iv 32 -Pn tcp -Ps 14 -Pa 0 -Pf 0 -Po 0 
s -t 10.090617706 -Hs 0 -Hd 1 -Ni 0 -Nx 213.62 -Ny 230.49 -Nz 0.00 -Ne -1.000000 -Nl RTR -Nw --- -Ma 0 -Md 0 -Ms 0 -Mt 0 -Is 0.0 -Id 1.0 -It tcp -Il 1060 -If 2 -Ii 27 -Iv 32 -Pn tcp -Ps 14 -Pa 0 -Pf 0 -Po 0 
r -t 10.092943976 -Hs 0 -Hd 0 -Ni 0 -Nx 213.63 -Ny 230.47 -Nz 0.00 -Ne -1.000000 -Nl AGT -Nw --- -Ma 13a -Md 0 -Ms 1 -Mt 800 -Is 1.0 -Id 0.0 -It ack -Il 60 -If 2 -Ii 21 -Iv 32 -Pn tcp -Ps 7 -Pa 0 -Pf 1 -Po 0 
s -t 10.092943976 -Hs 0 -Hd -2 -Ni 0 -Nx 213.63 -Ny 230.47 -Nz 0.00 -Ne -1.000000 -Nl AGT -Nw --- -Ma 0 -Md 0 -Ms 0 -Mt 0 -Is 0.0 -Id 1.0 -It tcp -Il 1040 -If 2 -Ii 28 -Iv 32 -Pn tcp -Ps 15 -Pa 0 -Pf 0 -Po 0 
r -t 10.092943976 -Hs 0 -Hd -2 -Ni 0 -Nx 213.63 -Ny 230.47 -Nz 0.00 -Ne -1.000000 -Nl RTR -Nw --- -Ma 0 -Md 0 -Ms 0 -Mt 0 -Is 0.0 -Id 1.0 -It tcp -Il 1040 -If 2 -Ii 28 -Iv 32 -Pn tcp -Ps 15 -Pa 0 -Pf 0 -Po 0 
s -t 10.092943976 -Hs 0 -Hd 1 -Ni 0 -Nx 213.63 -Ny 230.47 -Nz 0.00 -Ne -1.000000 -Nl RTR -Nw --- -Ma 0 -Md 0 -Ms 0 -Mt 0 -Is 0.0 -Id 1.0 -It tcp -Il 1060 -If 2 -Ii 28 -Iv 32 -Pn tcp -Ps 15 -Pa 0 -Pf 0 -Po 0 
s -t 10.092943976 -Hs 0 -Hd -2 -Ni 0 -Nx 213.63 -Ny 230.47 -Nz 0.00 -Ne -1.000000 -Nl AGT -Nw --- -Ma 0 -Md 0 -Ms 0 -Mt 0 -Is 0.0 -Id 1.0 -It tcp -Il 1040 -If 2 -Ii 29 -Iv 32 -Pn tcp -Ps 16 -Pa 0 -Pf 0 -Po 0 
r -t 10.092943976 -Hs 0 -Hd -2 -Ni 0 -Nx 213.63 -Ny 230.47 -Nz 0.00 -Ne -1.000000 -Nl RTR -Nw --- -Ma 0 -Md 0 -Ms 0 -Mt 0 -Is 0.0 -Id 1.0 -It tcp -Il 1040 -If 2 -Ii 29 -Iv 32 -Pn tcp -Ps 16 -Pa 0 -Pf 0 -Po 0 
s -t 10.092943976 -Hs 0 -Hd 1 -Ni 0 -Nx 213.63 -Ny 230.47 -Nz 0.00 -Ne -1.000000 -Nl RTR -Nw --- -Ma 0 -Md 0 -Ms 0 -Mt 0 -Is 0.0 -Id 1.0 -It tcp -Il 1060 -If 2 -Ii 29 -Iv 32 -Pn tcp -Ps 16 -Pa 0 -Pf 0 -Po 0 
r -t 10.102949678 -Hs 1 -Hd 1 -Ni 1 -Nx 236.88 -Ny 61.83 -Nz 0.00 -Ne -1.000000 -Nl AGT -Nw --- -Ma 13a -Md 1 -Ms 0 -Mt 800 -Is 0.0 -Id 1.0 -It tcp -Il 1060 -If 2 -Ii 18 -Iv 32 -Pn tcp -Ps 8 -Pa 0 -Pf 1 -Po 0 
s -t 10.102949678 -Hs 1 -Hd -2 -Ni 1 -Nx 236.88 -Ny 61.83 -Nz 0.00 -Ne -1.000000 -Nl AGT -Nw --- -Ma 0 -Md 0 -Ms 0 -Mt 0 -Is 1.0 -Id 0.0 -It ack -Il 40 -If 2 -Ii 30 -Iv 32 -Pn tcp -Ps 8 -Pa 0 -Pf 0 -Po 0 
r -t 10.102949678 -Hs 1 -Hd -2 -Ni 1 -Nx 236.88 -Ny 61.83 -Nz 0.00 -Ne -1.000000 -Nl RTR -Nw --- -Ma 0 -Md 0 -Ms 0 -Mt 0 -Is 1.0 -Id 0.0 -It ack -Il 40 -If 2 -Ii 30 -Iv 32 -Pn tcp -Ps 8 -Pa 0 -Pf 0 -Po 0 
s -t 10.102949678 -Hs 1 -Hd 0 -Ni 1 -Nx 236.88 -Ny 61.83 -Nz 0.00 -Ne -1.000000 -Nl RTR -Nw --- -Ma 0 -Md 0 -Ms 0 -Mt 0 -Is 1.0 -Id 0.0 -It ack -Il 60 -If 2 -Ii 30 -Iv 32 -Pn tcp -Ps 8 -Pa 0 -Pf 0 -Po 0 
r -t 10.113215947 -Hs 1 -Hd 1 -Ni 1 -Nx 236.77 -Ny 61.81 -Nz 0.00 -Ne -1.000000 -Nl AGT -Nw --- -Ma 13a -Md 1 -Ms 0 -Mt 800 -Is 0.0 -Id 1.0 -It tcp -Il 1060 -If 2 -Ii 22 -Iv 32 -Pn tcp -Ps 9 -Pa 0 -Pf 1 -Po 0 
s -t 10.113215947 -Hs 1 -Hd -2 -Ni 1 -Nx 236.77 -Ny 61.81 -Nz 0.00 -Ne -1.000000 -Nl AGT -Nw --- -Ma 0 -Md 0 -Ms 0 -Mt 0 -Is 1.0 -Id 0.0 -It ack -Il 40 -If 2 -Ii 31 -Iv 32 -Pn tcp -Ps 9 -Pa 0 -Pf 0 -Po 0 
r -t 10.113215947 -Hs 1 -Hd -2 -Ni 1 -Nx 236.77 -Ny 61.81 -Nz 0.00 -Ne -1.000000 -Nl RTR -Nw --- -Ma 0 -Md 0 -Ms 0 -Mt 0 -Is 1.0 -Id 0.0 -It ack -Il 40 -If 2 -Ii 31 -Iv 32 -Pn tcp -Ps 9 -Pa 0 -Pf 0 -Po 0 
s -t 10.113215947 -Hs 1 -Hd 0 -Ni 1 -Nx 236.77 -Ny 61.81 -Nz 0.00 -Ne -1.000000 -Nl RTR -Nw --- -Ma 0 -Md 0 -Ms 0 -Mt 0 -Is 1.0 -Id 0.0 -It ack -Il 60 -If 2 -Ii 31 -Iv 32 -Pn tcp -Ps 9 -Pa 0 -Pf 0 -Po 0 
r -t 10.123382215 -Hs 1 -Hd 1 -Ni 1 -Nx 236.66 -Ny 61.80 -Nz 0.00 -Ne -1.000000 -Nl AGT -Nw --- -Ma 13a -Md 1 -Ms 0 -Mt 800 -Is 0.0 -Id 1.0 -It tcp -Il 1060 -If 2 -Ii 23 -Iv 32 -Pn tcp -Ps 10 -Pa 0 -Pf 1 -Po 0 
s -t 10.123382215 -Hs 1 -Hd -2 -Ni 1 -Nx 236.66 -Ny 61.80 -Nz 0.00 -Ne -1.000000 -Nl AGT -Nw --- -Ma 0 -Md 0 -Ms 0 -Mt 0 -Is 1.0 -Id 0.0 -It ack -Il 40 -If 2 -Ii 32 -Iv 32 -Pn tcp -Ps 10 -Pa 0 -Pf 0 -Po 0 
r -t 10.123382215 -Hs 1 -Hd -2 -Ni 1 -Nx 236.66 -Ny 61.80 -Nz 0.00 -Ne -1.000000 -Nl RTR -Nw --- -Ma 0 -Md 0 -Ms 0 -Mt 0 -Is 1.0 -Id 0.0 -It ack -Il 40 -If 2 -Ii 32 -Iv 32 -Pn tcp -Ps 10 -Pa 0 -Pf 0 -Po 0 
s -t 10.123382215 -Hs 1 -Hd 0 -Ni 1 -Nx 236.66 -Ny 61.80 -Nz 0.00 -Ne -1.000000 -Nl RTR -Nw --- -Ma 0 -Md 0 -Ms 0 -Mt 0 -Is 1.0 -Id 0.0 -It ack -Il 60 -If 2 -Ii 32 -Iv 32 -Pn tcp -Ps 10 -Pa 0 -Pf 0 -Po 0 
r -t 10.125407915 -Hs 0 -Hd 0 -Ni 0 -Nx 213.77 -Ny 230.25 -Nz 0.00 -Ne -1.000000 -Nl AGT -Nw --- -Ma 13a -Md 0 -Ms 1 -Mt 800 -Is 1.0 -Id 0.0 -It ack -Il 60 -If 2 -Ii 30 -Iv 32 -Pn tcp -Ps 8 -Pa 0 -Pf 1 -Po 0 
s -t 10.125407915 -Hs 0 -Hd -2 -Ni 0 -Nx 213.77 -Ny 230.25 -Nz 0.00 -Ne -1.000000 -Nl AGT -Nw --- -Ma 0 -Md 0 -Ms 0 -Mt 0 -Is 0.0 -Id 1.0 -It tcp -Il 1040 -If 2 -Ii 33 -Iv 32 -Pn tcp -Ps 17 -Pa 0 -Pf 0 -Po 0 
r -t 10.125407915 -Hs 0 -Hd -2 -Ni 0 -Nx 213.77 -Ny 230.25 -Nz 0.00 -Ne -1.000000 -Nl RTR -Nw --- -Ma 0 -Md 0 -Ms 0 -Mt 0 -Is 0.0 -Id 1.0 -It tcp -Il 1040 -If 2 -Ii 33 -Iv 32 -Pn tcp -Ps 17 -Pa 0 -Pf 0 -Po 0 
s -t 10.125407915 -Hs 0 -Hd 1 -Ni 0 -Nx 213.77 -Ny 230.25 -Nz 0.00 -Ne -1.000000 -Nl RTR -Nw --- -Ma 0 -Md 0 -Ms 0 -Mt 0 -Is 0.0 -Id 1.0 -It tcp -Il 1060 -If 2 -Ii 33 -Iv 32 -Pn tcp -Ps 17 -Pa 0 -Pf 0 -Po 0 
s -t 10.125407915 -Hs 0 -Hd -2 -Ni 0 -Nx 213.77 -Ny 230.25 -Nz 0.00 -Ne -1.000000 -Nl AGT -Nw --- -Ma 0 -Md 0 -Ms 0 -Mt 0 -Is 0.0 -Id 1.0 -It tcp -Il 1040 -If 2 -Ii 34 -Iv 32 -Pn tcp -Ps 18 -Pa 0 -Pf 0 -Po 0 
r -t 10.125407915 -Hs 0 -Hd -2 -Ni 0 -Nx 213.77 -Ny 230.25 -Nz 0.00 -Ne -1.000000 -Nl RTR -Nw --- -Ma 0 -Md 0 -Ms 0 -Mt 0 -Is 0.0 -Id 1.0 -It tcp -Il 1040 -If 2 -Ii 34 -Iv 32 -Pn tcp -Ps 18 -Pa 0 -Pf 0 -Po 0 
s -t 10.125407915 -Hs 0 -Hd 1 -Ni 0 -Nx 213.77 -Ny 230.25 -Nz 0.00 -Ne -1.000000 -Nl RTR -Nw --- -Ma 0 -Md 0 -Ms 0 -Mt 0 -Is 0.0 -Id 1.0 -It tcp -Il 1060 -If 2 -Ii 34 -Iv 32 -Pn tcp -Ps 18 -Pa 0 -Pf 0 -Po 0 
r -t 10.135653615 -Hs 1 -Hd 1 -Ni 1 -Nx 236.52 -Ny 61.78 -Nz 0.00 -Ne -1.000000 -Nl AGT -Nw --- -Ma 13a -Md 1 -Ms 0 -Mt 800 -Is 0.0 -Id 1.0 -It tcp -Il 1060 -If 2 -Ii 24 -Iv 32 -Pn tcp -Ps 11 -Pa 0 -Pf 1 -Po 0 
s -t 10.135653615 -Hs 1 -Hd -2 -Ni 1 -Nx 236.52 -Ny 61.78 -Nz 0.00 -Ne -1.000000 -Nl AGT -Nw --- -Ma 0 -Md 0 -Ms 0 -Mt 0 -Is 1.0 -Id 0.0 -It ack -Il 40 -If 2 -Ii 35 -Iv 32 -Pn tcp -Ps 11 -Pa 0 -Pf 0 -Po 0 
r -t 10.135653615 -Hs 1 -Hd -2 -Ni 1 -Nx 236.52 -Ny 61.78 -Nz 0.00 -Ne -1.000000 -Nl RTR -Nw --- -Ma 0 -Md 0 -Ms 0 -Mt 0 -Is 1.0 -Id 0.0 -It ack -Il 40 -If 2 -Ii 35 -Iv 32 -Pn tcp -Ps 11 -Pa 0 -Pf 0 -Po 0 
s -t 10.135653615 -Hs 1 -Hd 0 -Ni 1 -Nx 236.52 -Ny 61.78 -Nz 0.00 -Ne -1.000000 -Nl RTR -Nw --- -Ma 0 -Md 0 -Ms 0 -Mt 0 -Is 1.0 -Id 0.0 -It ack -Il 60 -If 2 -Ii 35 -Iv 32 -Pn tcp -Ps 11 -Pa 0 -Pf 0 -Po 0 
r -t 10.145639880 -Hs 1 -Hd 1 -Ni 1 -Nx 236.42 -Ny 61.76 -Nz 0.00 -Ne -1.000000 -Nl AGT -Nw --- -Ma 13a -Md 1 -Ms 0 -Mt 800 -Is 0.0 -Id 1.0 -It tcp -Il 1060 -If 2 -Ii 25 -Iv 32 -Pn tcp -Ps 12 -Pa 0 -Pf 1 -Po 0 
s -t 10.145639880 -Hs 1 -Hd -2 -Ni 1 -Nx 236.42 -Ny 61.76 -Nz 0.00 -Ne -1.000000 -Nl AGT -Nw --- -Ma 0 -Md 0 -Ms 0 -Mt 0 -Is 1.0 -Id 0.0 -It ack -Il 40 -If 2 -Ii 36 -Iv 32 -Pn tcp -Ps 12 -Pa 0 -Pf 0 -Po 0 
r -t 10.145639880 -Hs 1 -Hd -2 -Ni 1 -Nx 236.42 -Ny 61.76 -Nz 0.00 -Ne -1.000000 -Nl RTR -Nw --- -Ma 0 -Md 0 -Ms 0 -Mt 0 -Is 1.0 -Id 0.0 -It ack -Il 40 -If 2 -Ii 36 -Iv 32 -Pn tcp -Ps 12 -Pa 0 -Pf 0 -Po 0 
s -t 10.145639880 -Hs 1 -Hd 0 -Ni 1 -Nx 236.42 -Ny 61.76 -Nz 0.00 -Ne -1.000000 -Nl RTR -Nw --- -Ma 0 -Md 0 -Ms 0 -Mt 0 -Is 1.0 -Id 0.0 -It ack -Il 60 -If 2 -Ii 36 -Iv 32 -Pn tcp -Ps 12 -Pa 0 -Pf 0 -Po 0 
r -t 10.155846145 -Hs 1 -Hd 1 -Ni 1 -Nx 236.30 -Ny 61.74 -Nz 0.00 -Ne -1.000000 -Nl AGT -Nw --- -Ma 13a -Md 1 -Ms 0 -Mt 800 -Is 0.0 -Id 1.0 -It tcp -Il 1060 -If 2 -Ii 26 -Iv 32 -Pn tcp -Ps 13 -Pa 0 -Pf 1 -Po 0 
s -t 10.155846145 -Hs 1 -Hd -2 -Ni 1 -Nx 236.30 -Ny 61.74 -Nz 0.00 -Ne -1.000000 -Nl AGT -Nw --- -Ma 0 -Md 0 -Ms 0 -Mt 0 -Is 1.0 -Id 0.0 -It ack -Il 40 -If 2 -Ii 37 -Iv 32 -Pn tcp -Ps 13 -Pa 0 -Pf 0 -Po 0 
r -t 10.155846145 -Hs 1 -Hd -2 -Ni 1 -Nx 236.30 -Ny 61.74 -Nz 0.00 -Ne -1.000000 -Nl RTR -Nw --- -Ma 0 -Md 0 -Ms 0 -Mt 0 -Is 1.0 -Id 0.0 -It ack -Il 40 -If 2 -Ii 37 -Iv 32 -Pn tcp -Ps 13 -Pa 0 -Pf 0 -Po 0 